s -t 0.100000000 -Hs 3 -Hd -2 -Ni 3 -Nx 980.00 -Ny 500.00 -Nz 0.00 -Ne -1.000000 -Nl AGT -Nw --- -Ma 0 -Md 0 -Ms 0 -Mt 0 -Is 3.0 -Id 2.1 -It tcp -Il 40 -If 3 -Ii 0 -Iv 32 -Pn tcp -Ps 0 -Pa 0 -Pf 0 -Po 0 
r -t 0.100000000 -Hs 3 -Hd -2 -Ni 3 -Nx 980.00 -Ny 500.00 -Nz 0.00 -Ne -1.000000 -Nl RTR -Nw --- -Ma 0 -Md 0 -Ms 0 -Mt 0 -Is 3.0 -Id 2.1 -It tcp -Il 40 -If 3 -Ii 0 -Iv 32 -Pn tcp -Ps 0 -Pa 0 -Pf 0 -Po 0 
s -t 0.100000000 -Hs 3 -Hd -2 -Ni 3 -Nx 980.00 -Ny 500.00 -Nz 0.00 -Ne -1.000000 -Nl RTR -Nw --- -Ma 0 -Md 0 -Ms 0 -Mt 0 -Is 3.255 -Id -1.255 -It AODV -Il 48 -If 0 -Ii 0 -Iv 30 -P aodv -Pt 0x2 -Ph 1 -Pb 1 -Pd 2 -Pds 0 -Ps 3 -Pss 4 -Pc REQUEST 
s -t 0.500000000 -Hs 0 -Hd -2 -Ni 0 -Nx 5.00 -Ny 5.00 -Nz 0.00 -Ne -1.000000 -Nl AGT -Nw --- -Ma 0 -Md 0 -Ms 0 -Mt 0 -Is 0.0 -Id 1.0 -It tcp -Il 40 -If 1 -Ii 1 -Iv 32 -Pn tcp -Ps 0 -Pa 0 -Pf 0 -Po 0 
r -t 0.500000000 -Hs 0 -Hd -2 -Ni 0 -Nx 5.00 -Ny 5.00 -Nz 0.00 -Ne -1.000000 -Nl RTR -Nw --- -Ma 0 -Md 0 -Ms 0 -Mt 0 -Is 0.0 -Id 1.0 -It tcp -Il 40 -If 1 -Ii 1 -Iv 32 -Pn tcp -Ps 0 -Pa 0 -Pf 0 -Po 0 
s -t 0.500000000 -Hs 0 -Hd -2 -Ni 0 -Nx 5.00 -Ny 5.00 -Nz 0.00 -Ne -1.000000 -Nl RTR -Nw --- -Ma 0 -Md 0 -Ms 0 -Mt 0 -Is 0.255 -Id -1.255 -It AODV -Il 48 -If 0 -Ii 0 -Iv 30 -P aodv -Pt 0x2 -Ph 1 -Pb 1 -Pd 1 -Pds 0 -Ps 0 -Pss 4 -Pc REQUEST 
s -t 0.800000000 -Hs 4 -Hd -2 -Ni 4 -Nx 500.00 -Ny 100.00 -Nz 0.00 -Ne -1.000000 -Nl AGT -Nw --- -Ma 0 -Md 0 -Ms 0 -Mt 0 -Is 4.0 -Id 2.0 -It tcp -Il 40 -If 2 -Ii 2 -Iv 32 -Pn tcp -Ps 0 -Pa 0 -Pf 0 -Po 0 
r -t 0.800000000 -Hs 4 -Hd -2 -Ni 4 -Nx 500.00 -Ny 100.00 -Nz 0.00 -Ne -1.000000 -Nl RTR -Nw --- -Ma 0 -Md 0 -Ms 0 -Mt 0 -Is 4.0 -Id 2.0 -It tcp -Il 40 -If 2 -Ii 2 -Iv 32 -Pn tcp -Ps 0 -Pa 0 -Pf 0 -Po 0 
s -t 0.800000000 -Hs 4 -Hd -2 -Ni 4 -Nx 500.00 -Ny 100.00 -Nz 0.00 -Ne -1.000000 -Nl RTR -Nw --- -Ma 0 -Md 0 -Ms 0 -Mt 0 -Is 4.255 -Id -1.255 -It AODV -Il 48 -If 0 -Ii 0 -Iv 30 -P aodv -Pt 0x2 -Ph 1 -Pb 1 -Pd 2 -Pds 0 -Ps 4 -Pss 4 -Pc REQUEST 
r -t 0.801148618 -Hs 1 -Hd -2 -Ni 1 -Nx 490.00 -Ny 285.00 -Nz 0.00 -Ne -1.000000 -Nl RTR -Nw --- -Ma 0 -Md ffffffff -Ms 4 -Mt 800 -Is 4.255 -Id -1.255 -It AODV -Il 48 -If 0 -Ii 0 -Iv 30 -P aodv -Pt 0x2 -Ph 1 -Pb 1 -Pd 2 -Pds 0 -Ps 4 -Pss 4 -Pc REQUEST 
s -t 0.807537269 -Hs 1 -Hd -2 -Ni 1 -Nx 490.00 -Ny 285.00 -Nz 0.00 -Ne -1.000000 -Nl RTR -Nw --- -Ma 0 -Md ffffffff -Ms 4 -Mt 800 -Is 1.255 -Id -1.255 -It AODV -Il 48 -If 0 -Ii 0 -Iv 29 -P aodv -Pt 0x2 -Ph 2 -Pb 1 -Pd 2 -Pds 0 -Ps 4 -Pss 4 -Pc REQUEST 
r -t 0.808745887 -Hs 4 -Hd -2 -Ni 4 -Nx 500.00 -Ny 100.00 -Nz 0.00 -Ne -1.000000 -Nl RTR -Nw --- -Ma 0 -Md ffffffff -Ms 1 -Mt 800 -Is 1.255 -Id -1.255 -It AODV -Il 48 -If 0 -Ii 0 -Iv 29 -P aodv -Pt 0x2 -Ph 2 -Pb 1 -Pd 2 -Pds 0 -Ps 4 -Pss 4 -Pc REQUEST 
M 1.00000 0 (5.00, 5.00, 0.00), (100.00, 50.00), 30.00
M 1.50000 1 (490.00, 285.00, 0.00), (400.00, 50.00), 50.00
M 2.00000 0 (32.11, 17.84, 0.00), (150.00, 350.00), 50.00
s -t 2.000000000 -Hs 3 -Hd -2 -Ni 3 -Nx 980.00 -Ny 500.00 -Nz 0.00 -Ne -1.000000 -Nl RTR -Nw --- -Ma 0 -Md 0 -Ms 0 -Mt 0 -Is 3.255 -Id -1.255 -It AODV -Il 48 -If 0 -Ii 0 -Iv 30 -P aodv -Pt 0x2 -Ph 1 -Pb 2 -Pd 2 -Pds 0 -Ps 3 -Pss 6 -Pc REQUEST 
M 2.50000 4 (500.00, 100.00, 0.00), (200.00, 300.00), 50.00
s -t 2.500000000 -Hs 0 -Hd -2 -Ni 0 -Nx 40.47 -Ny 41.40 -Nz 0.00 -Ne -1.000000 -Nl RTR -Nw --- -Ma 0 -Md 0 -Ms 0 -Mt 0 -Is 0.255 -Id -1.255 -It AODV -Il 48 -If 0 -Ii 0 -Iv 30 -P aodv -Pt 0x2 -Ph 1 -Pb 2 -Pd 1 -Pds 0 -Ps 0 -Pss 6 -Pc REQUEST 
r -t 2.501108756 -Hs 2 -Hd -2 -Ni 2 -Nx 150.00 -Ny 240.00 -Nz 0.00 -Ne -1.000000 -Nl RTR -Nw --- -Ma 0 -Md ffffffff -Ms 0 -Mt 800 -Is 0.255 -Id -1.255 -It AODV -Il 48 -If 0 -Ii 0 -Iv 30 -P aodv -Pt 0x2 -Ph 1 -Pb 2 -Pd 1 -Pds 0 -Ps 0 -Pss 6 -Pc REQUEST 
s -t 2.509706033 -Hs 2 -Hd -2 -Ni 2 -Nx 150.00 -Ny 240.00 -Nz 0.00 -Ne -1.000000 -Nl RTR -Nw --- -Ma 0 -Md ffffffff -Ms 0 -Mt 800 -Is 2.255 -Id -1.255 -It AODV -Il 48 -If 0 -Ii 0 -Iv 29 -P aodv -Pt 0x2 -Ph 2 -Pb 2 -Pd 1 -Pds 0 -Ps 0 -Pss 6 -Pc REQUEST 
r -t 2.510814787 -Hs 0 -Hd -2 -Ni 0 -Nx 40.65 -Ny 41.91 -Nz 0.00 -Ne -1.000000 -Nl RTR -Nw --- -Ma 0 -Md ffffffff -Ms 2 -Mt 800 -Is 2.255 -Id -1.255 -It AODV -Il 48 -If 0 -Ii 0 -Iv 29 -P aodv -Pt 0x2 -Ph 2 -Pb 2 -Pd 1 -Pds 0 -Ps 0 -Pss 6 -Pc REQUEST 
M 3.00000 3 (980.00, 500.00, 0.00), (350.00, 250.00), 100.00
s -t 3.000000000 -Hs 4 -Hd -2 -Ni 4 -Nx 479.20 -Ny 113.87 -Nz 0.00 -Ne -1.000000 -Nl RTR -Nw --- -Ma 0 -Md 0 -Ms 0 -Mt 0 -Is 4.255 -Id -1.255 -It AODV -Il 48 -If 0 -Ii 0 -Iv 30 -P aodv -Pt 0x2 -Ph 1 -Pb 2 -Pd 2 -Pds 0 -Ps 4 -Pss 6 -Pc REQUEST 
r -t 3.001288341 -Hs 1 -Hd -2 -Ni 1 -Nx 463.15 -Ny 214.90 -Nz 0.00 -Ne -1.000000 -Nl RTR -Nw --- -Ma 0 -Md ffffffff -Ms 4 -Mt 800 -Is 4.255 -Id -1.255 -It AODV -Il 48 -If 0 -Ii 0 -Iv 30 -P aodv -Pt 0x2 -Ph 1 -Pb 2 -Pd 2 -Pds 0 -Ps 4 -Pss 6 -Pc REQUEST 
s -t 3.004775751 -Hs 1 -Hd -2 -Ni 1 -Nx 463.09 -Ny 214.74 -Nz 0.00 -Ne -1.000000 -Nl RTR -Nw --- -Ma 0 -Md ffffffff -Ms 4 -Mt 800 -Is 1.255 -Id -1.255 -It AODV -Il 48 -If 0 -Ii 0 -Iv 29 -P aodv -Pt 0x2 -Ph 2 -Pb 2 -Pd 2 -Pds 0 -Ps 4 -Pss 6 -Pc REQUEST 
r -t 3.005944091 -Hs 4 -Hd -2 -Ni 4 -Nx 478.95 -Ny 114.03 -Nz 0.00 -Ne -1.000000 -Nl RTR -Nw --- -Ma 0 -Md ffffffff -Ms 1 -Mt 800 -Is 1.255 -Id -1.255 -It AODV -Il 48 -If 0 -Ii 0 -Iv 29 -P aodv -Pt 0x2 -Ph 2 -Pb 2 -Pd 2 -Pds 0 -Ps 4 -Pss 6 -Pc REQUEST 
s -t 3.100000000 -Hs 3 -Hd -2 -Ni 3 -Nx 970.71 -Ny 496.31 -Nz 0.00 -Ne -1.000000 -Nl AGT -Nw --- -Ma 0 -Md 0 -Ms 0 -Mt 0 -Is 3.0 -Id 2.1 -It tcp -Il 40 -If 3 -Ii 3 -Iv 32 -Pn tcp -Ps 0 -Pa 0 -Pf 0 -Po 0 
r -t 3.100000000 -Hs 3 -Hd -2 -Ni 3 -Nx 970.71 -Ny 496.31 -Nz 0.00 -Ne -1.000000 -Nl RTR -Nw --- -Ma 0 -Md 0 -Ms 0 -Mt 0 -Is 3.0 -Id 2.1 -It tcp -Il 40 -If 3 -Ii 3 -Iv 32 -Pn tcp -Ps 0 -Pa 0 -Pf 0 -Po 0 
M 3.50000 4 (458.40, 127.74, 0.00), (250.00, 100.00), 50.00
s -t 3.500000000 -Hs 0 -Hd -2 -Ni 0 -Nx 57.20 -Ny 88.52 -Nz 0.00 -Ne -1.000000 -Nl AGT -Nw --- -Ma 0 -Md 0 -Ms 0 -Mt 0 -Is 0.0 -Id 1.0 -It tcp -Il 40 -If 1 -Ii 4 -Iv 32 -Pn tcp -Ps 0 -Pa 0 -Pf 0 -Po 0 
r -t 3.500000000 -Hs 0 -Hd -2 -Ni 0 -Nx 57.20 -Ny 88.52 -Nz 0.00 -Ne -1.000000 -Nl RTR -Nw --- -Ma 0 -Md 0 -Ms 0 -Mt 0 -Is 0.0 -Id 1.0 -It tcp -Il 40 -If 1 -Ii 4 -Iv 32 -Pn tcp -Ps 0 -Pa 0 -Pf 0 -Po 0 
s -t 3.800000000 -Hs 4 -Hd -2 -Ni 4 -Nx 443.53 -Ny 125.76 -Nz 0.00 -Ne -1.000000 -Nl AGT -Nw --- -Ma 0 -Md 0 -Ms 0 -Mt 0 -Is 4.0 -Id 2.0 -It tcp -Il 40 -If 2 -Ii 5 -Iv 32 -Pn tcp -Ps 0 -Pa 0 -Pf 0 -Po 0 
r -t 3.800000000 -Hs 4 -Hd -2 -Ni 4 -Nx 443.53 -Ny 125.76 -Nz 0.00 -Ne -1.000000 -Nl RTR -Nw --- -Ma 0 -Md 0 -Ms 0 -Mt 0 -Is 4.0 -Id 2.0 -It tcp -Il 40 -If 2 -Ii 5 -Iv 32 -Pn tcp -Ps 0 -Pa 0 -Pf 0 -Po 0 
s -t 6.000000000 -Hs 3 -Hd -2 -Ni 3 -Nx 701.15 -Ny 389.35 -Nz 0.00 -Ne -1.000000 -Nl RTR -Nw --- -Ma 0 -Md 0 -Ms 0 -Mt 0 -Is 3.255 -Id -1.255 -It AODV -Il 48 -If 0 -Ii 0 -Iv 30 -P aodv -Pt 0x2 -Ph 1 -Pb 3 -Pd 2 -Pds 0 -Ps 3 -Pss 8 -Pc REQUEST 
s -t 6.500000000 -Hs 0 -Hd -2 -Ni 0 -Nx 107.37 -Ny 229.88 -Nz 0.00 -Ne -1.000000 -Nl RTR -Nw --- -Ma 0 -Md 0 -Ms 0 -Mt 0 -Is 0.255 -Id -1.255 -It AODV -Il 48 -If 0 -Ii 0 -Iv 30 -P aodv -Pt 0x2 -Ph 1 -Pb 3 -Pd 1 -Pds 0 -Ps 0 -Pss 8 -Pc REQUEST 
r -t 6.501128146 -Hs 2 -Hd -2 -Ni 2 -Nx 150.00 -Ny 240.00 -Nz 0.00 -Ne -1.000000 -Nl RTR -Nw --- -Ma 0 -Md ffffffff -Ms 0 -Mt 800 -Is 0.255 -Id -1.255 -It AODV -Il 48 -If 0 -Ii 0 -Iv 30 -P aodv -Pt 0x2 -Ph 1 -Pb 3 -Pd 1 -Pds 0 -Ps 0 -Pss 8 -Pc REQUEST 
r -t 6.501128787 -Hs 4 -Hd -2 -Ni 4 -Nx 309.65 -Ny 107.94 -Nz 0.00 -Ne -1.000000 -Nl RTR -Nw --- -Ma 0 -Md ffffffff -Ms 0 -Mt 800 -Is 0.255 -Id -1.255 -It AODV -Il 48 -If 0 -Ii 0 -Iv 30 -P aodv -Pt 0x2 -Ph 1 -Pb 3 -Pd 1 -Pds 0 -Ps 0 -Pss 8 -Pc REQUEST 
s -t 6.503300382 -Hs 4 -Hd -2 -Ni 4 -Nx 309.54 -Ny 107.92 -Nz 0.00 -Ne -1.000000 -Nl RTR -Nw --- -Ma 0 -Md ffffffff -Ms 0 -Mt 800 -Is 4.255 -Id -1.255 -It AODV -Il 48 -If 0 -Ii 0 -Iv 29 -P aodv -Pt 0x2 -Ph 2 -Pb 3 -Pd 1 -Pds 0 -Ps 0 -Pss 8 -Pc REQUEST 
r -t 6.504608739 -Hs 1 -Hd -2 -Ni 1 -Nx 400.51 -Ny 51.32 -Nz 0.00 -Ne -1.000000 -Nl RTR -Nw --- -Ma 0 -Md ffffffff -Ms 4 -Mt 800 -Is 4.255 -Id -1.255 -It AODV -Il 48 -If 0 -Ii 0 -Iv 29 -P aodv -Pt 0x2 -Ph 2 -Pb 3 -Pd 1 -Pds 0 -Ps 0 -Pss 8 -Pc REQUEST 
s -t 6.504608739 -Hs 1 -Hd 4 -Ni 1 -Nx 400.51 -Ny 51.32 -Nz 0.00 -Ne -1.000000 -Nl RTR -Nw --- -Ma 0 -Md 0 -Ms 0 -Mt 0 -Is 1.255 -Id 0.255 -It AODV -Il 44 -If 0 -Ii 0 -Iv 30 -P aodv -Pt 0x4 -Ph 1 -Pd 1 -Pds 4 -Pl 10.000000 -Pc REPLY 
r -t 6.504609072 -Hs 2 -Hd -2 -Ni 2 -Nx 150.00 -Ny 240.00 -Nz 0.00 -Ne -1.000000 -Nl RTR -Nw --- -Ma 0 -Md ffffffff -Ms 4 -Mt 800 -Is 4.255 -Id -1.255 -It AODV -Il 48 -If 0 -Ii 0 -Iv 29 -P aodv -Pt 0x2 -Ph 2 -Pb 3 -Pd 1 -Pds 0 -Ps 0 -Pss 8 -Pc REQUEST 
r -t 6.504609169 -Hs 0 -Hd -2 -Ni 0 -Nx 107.45 -Ny 230.10 -Nz 0.00 -Ne -1.000000 -Nl RTR -Nw --- -Ma 0 -Md ffffffff -Ms 4 -Mt 800 -Is 4.255 -Id -1.255 -It AODV -Il 48 -If 0 -Ii 0 -Iv 29 -P aodv -Pt 0x2 -Ph 2 -Pb 3 -Pd 1 -Pds 0 -Ps 0 -Pss 8 -Pc REQUEST 
r -t 6.509314243 -Hs 4 -Hd 4 -Ni 4 -Nx 309.25 -Ny 107.88 -Nz 0.00 -Ne -1.000000 -Nl RTR -Nw --- -Ma 13a -Md 4 -Ms 1 -Mt 800 -Is 1.255 -Id 0.255 -It AODV -Il 44 -If 0 -Ii 0 -Iv 30 -P aodv -Pt 0x4 -Ph 1 -Pd 1 -Pds 4 -Pl 10.000000 -Pc REPLY 
f -t 6.509314243 -Hs 4 -Hd 0 -Ni 4 -Nx 309.25 -Ny 107.88 -Nz 0.00 -Ne -1.000000 -Nl RTR -Nw --- -Ma 13a -Md 4 -Ms 1 -Mt 800 -Is 1.255 -Id 0.255 -It AODV -Il 44 -If 0 -Ii 0 -Iv 29 -P aodv -Pt 0x4 -Ph 2 -Pd 1 -Pds 4 -Pl 10.000000 -Pc REPLY 
s -t 6.509526398 -Hs 2 -Hd -2 -Ni 2 -Nx 150.00 -Ny 240.00 -Nz 0.00 -Ne -1.000000 -Nl RTR -Nw --- -Ma 0 -Md ffffffff -Ms 0 -Mt 800 -Is 2.255 -Id -1.255 -It AODV -Il 48 -If 0 -Ii 0 -Iv 29 -P aodv -Pt 0x2 -Ph 2 -Pb 3 -Pd 1 -Pds 0 -Ps 0 -Pss 8 -Pc REQUEST 
r -t 6.510777076 -Hs 0 -Hd -2 -Ni 0 -Nx 107.55 -Ny 230.39 -Nz 0.00 -Ne -1.000000 -Nl RTR -Nw --- -Ma 0 -Md ffffffff -Ms 2 -Mt 800 -Is 2.255 -Id -1.255 -It AODV -Il 48 -If 0 -Ii 0 -Iv 29 -P aodv -Pt 0x2 -Ph 2 -Pb 3 -Pd 1 -Pds 0 -Ps 0 -Pss 8 -Pc REQUEST 
r -t 6.510777620 -Hs 4 -Hd -2 -Ni 4 -Nx 309.17 -Ny 107.88 -Nz 0.00 -Ne -1.000000 -Nl RTR -Nw --- -Ma 0 -Md ffffffff -Ms 2 -Mt 800 -Is 2.255 -Id -1.255 -It AODV -Il 48 -If 0 -Ii 0 -Iv 29 -P aodv -Pt 0x2 -Ph 2 -Pb 3 -Pd 1 -Pds 0 -Ps 0 -Pss 8 -Pc REQUEST 
r -t 6.515056124 -Hs 0 -Hd 0 -Ni 0 -Nx 107.62 -Ny 230.59 -Nz 0.00 -Ne -1.000000 -Nl RTR -Nw --- -Ma 13a -Md 0 -Ms 4 -Mt 800 -Is 1.255 -Id 0.255 -It AODV -Il 44 -If 0 -Ii 0 -Iv 29 -P aodv -Pt 0x4 -Ph 2 -Pd 1 -Pds 4 -Pl 10.000000 -Pc REPLY 
s -t 6.515056124 -Hs 0 -Hd 4 -Ni 0 -Nx 107.62 -Ny 230.59 -Nz 0.00 -Ne -1.000000 -Nl RTR -Nw --- -Ma 0 -Md 0 -Ms 0 -Mt 0 -Is 0.0 -Id 1.0 -It tcp -Il 40 -If 1 -Ii 1 -Iv 30 -Pn tcp -Ps 0 -Pa 0 -Pf 0 -Po 0 
r -t 6.517462481 -Hs 4 -Hd 4 -Ni 4 -Nx 308.84 -Ny 107.83 -Nz 0.00 -Ne -1.000000 -Nl RTR -Nw --- -Ma 13a -Md 4 -Ms 0 -Mt 800 -Is 0.0 -Id 1.0 -It tcp -Il 40 -If 1 -Ii 1 -Iv 30 -Pn tcp -Ps 0 -Pa 0 -Pf 1 -Po 0 
f -t 6.517462481 -Hs 4 -Hd 1 -Ni 4 -Nx 308.84 -Ny 107.83 -Nz 0.00 -Ne -1.000000 -Nl RTR -Nw --- -Ma 13a -Md 4 -Ms 0 -Mt 800 -Is 0.0 -Id 1.0 -It tcp -Il 40 -If 1 -Ii 1 -Iv 29 -Pn tcp -Ps 0 -Pa 0 -Pf 1 -Po 0 
r -t 6.519407560 -Hs 1 -Hd 1 -Ni 1 -Nx 400.24 -Ny 50.63 -Nz 0.00 -Ne -1.000000 -Nl AGT -Nw --- -Ma 13a -Md 1 -Ms 4 -Mt 800 -Is 0.0 -Id 1.0 -It tcp -Il 40 -If 1 -Ii 1 -Iv 29 -Pn tcp -Ps 0 -Pa 0 -Pf 2 -Po 0 
s -t 6.519407560 -Hs 1 -Hd -2 -Ni 1 -Nx 400.24 -Ny 50.63 -Nz 0.00 -Ne -1.000000 -Nl AGT -Nw --- -Ma 0 -Md 0 -Ms 0 -Mt 0 -Is 1.0 -Id 0.0 -It ack -Il 40 -If 1 -Ii 6 -Iv 32 -Pn tcp -Ps 0 -Pa 0 -Pf 0 -Po 0 
r -t 6.519407560 -Hs 1 -Hd -2 -Ni 1 -Nx 400.24 -Ny 50.63 -Nz 0.00 -Ne -1.000000 -Nl RTR -Nw --- -Ma 0 -Md 0 -Ms 0 -Mt 0 -Is 1.0 -Id 0.0 -It ack -Il 40 -If 1 -Ii 6 -Iv 32 -Pn tcp -Ps 0 -Pa 0 -Pf 0 -Po 0 
s -t 6.519407560 -Hs 1 -Hd 4 -Ni 1 -Nx 400.24 -Ny 50.63 -Nz 0.00 -Ne -1.000000 -Nl RTR -Nw --- -Ma 0 -Md 0 -Ms 0 -Mt 0 -Is 1.0 -Id 0.0 -It ack -Il 40 -If 1 -Ii 6 -Iv 30 -Pn tcp -Ps 0 -Pa 0 -Pf 0 -Po 0 
r -t 6.521732639 -Hs 4 -Hd 4 -Ni 4 -Nx 308.63 -Ny 107.80 -Nz 0.00 -Ne -1.000000 -Nl RTR -Nw --- -Ma 13a -Md 4 -Ms 1 -Mt 800 -Is 1.0 -Id 0.0 -It ack -Il 40 -If 1 -Ii 6 -Iv 30 -Pn tcp -Ps 0 -Pa 0 -Pf 1 -Po 0 
f -t 6.521732639 -Hs 4 -Hd 0 -Ni 4 -Nx 308.63 -Ny 107.80 -Nz 0.00 -Ne -1.000000 -Nl RTR -Nw --- -Ma 13a -Md 4 -Ms 1 -Mt 800 -Is 1.0 -Id 0.0 -It ack -Il 40 -If 1 -Ii 6 -Iv 29 -Pn tcp -Ps 0 -Pa 0 -Pf 1 -Po 0 
r -t 6.523738995 -Hs 0 -Hd 0 -Ni 0 -Nx 107.77 -Ny 231.00 -Nz 0.00 -Ne -1.000000 -Nl AGT -Nw --- -Ma 13a -Md 0 -Ms 4 -Mt 800 -Is 1.0 -Id 0.0 -It ack -Il 40 -If 1 -Ii 6 -Iv 29 -Pn tcp -Ps 0 -Pa 0 -Pf 2 -Po 0 
s -t 6.523738995 -Hs 0 -Hd -2 -Ni 0 -Nx 107.77 -Ny 231.00 -Nz 0.00 -Ne -1.000000 -Nl AGT -Nw --- -Ma 0 -Md 0 -Ms 0 -Mt 0 -Is 0.0 -Id 1.0 -It tcp -Il 1040 -If 1 -Ii 7 -Iv 32 -Pn tcp -Ps 1 -Pa 0 -Pf 0 -Po 0 
r -t 6.523738995 -Hs 0 -Hd -2 -Ni 0 -Nx 107.77 -Ny 231.00 -Nz 0.00 -Ne -1.000000 -Nl RTR -Nw --- -Ma 0 -Md 0 -Ms 0 -Mt 0 -Is 0.0 -Id 1.0 -It tcp -Il 1040 -If 1 -Ii 7 -Iv 32 -Pn tcp -Ps 1 -Pa 0 -Pf 0 -Po 0 
s -t 6.523738995 -Hs 0 -Hd 4 -Ni 0 -Nx 107.77 -Ny 231.00 -Nz 0.00 -Ne -1.000000 -Nl RTR -Nw --- -Ma 0 -Md 0 -Ms 0 -Mt 0 -Is 0.0 -Id 1.0 -It tcp -Il 1040 -If 1 -Ii 7 -Iv 30 -Pn tcp -Ps 1 -Pa 0 -Pf 0 -Po 0 
s -t 6.525056124 -Hs 0 -Hd 4 -Ni 0 -Nx 107.79 -Ny 231.06 -Nz 0.00 -Ne -1.000000 -Nl RTR -Nw --- -Ma 0 -Md 0 -Ms 0 -Mt 0 -Is 0.0 -Id 1.0 -It tcp -Il 40 -If 1 -Ii 4 -Iv 30 -Pn tcp -Ps 0 -Pa 0 -Pf 0 -Po 0 
r -t 6.534045351 -Hs 4 -Hd 4 -Ni 4 -Nx 308.02 -Ny 107.72 -Nz 0.00 -Ne -1.000000 -Nl RTR -Nw --- -Ma 13a -Md 4 -Ms 0 -Mt 800 -Is 0.0 -Id 1.0 -It tcp -Il 1040 -If 1 -Ii 7 -Iv 30 -Pn tcp -Ps 1 -Pa 0 -Pf 1 -Po 0 
f -t 6.534045351 -Hs 4 -Hd 1 -Ni 4 -Nx 308.02 -Ny 107.72 -Nz 0.00 -Ne -1.000000 -Nl RTR -Nw --- -Ma 13a -Md 4 -Ms 0 -Mt 800 -Is 0.0 -Id 1.0 -It tcp -Il 1040 -If 1 -Ii 7 -Iv 29 -Pn tcp -Ps 1 -Pa 0 -Pf 1 -Po 0 
r -t 6.544090437 -Hs 1 -Hd 1 -Ni 1 -Nx 400.00 -Ny 50.00 -Nz 0.00 -Ne -1.000000 -Nl AGT -Nw --- -Ma 13a -Md 1 -Ms 4 -Mt 800 -Is 0.0 -Id 1.0 -It tcp -Il 1040 -If 1 -Ii 7 -Iv 29 -Pn tcp -Ps 1 -Pa 0 -Pf 2 -Po 0 
s -t 6.544090437 -Hs 1 -Hd -2 -Ni 1 -Nx 400.00 -Ny 50.00 -Nz 0.00 -Ne -1.000000 -Nl AGT -Nw --- -Ma 0 -Md 0 -Ms 0 -Mt 0 -Is 1.0 -Id 0.0 -It ack -Il 40 -If 1 -Ii 8 -Iv 32 -Pn tcp -Ps 1 -Pa 0 -Pf 0 -Po 0 
r -t 6.544090437 -Hs 1 -Hd -2 -Ni 1 -Nx 400.00 -Ny 50.00 -Nz 0.00 -Ne -1.000000 -Nl RTR -Nw --- -Ma 0 -Md 0 -Ms 0 -Mt 0 -Is 1.0 -Id 0.0 -It ack -Il 40 -If 1 -Ii 8 -Iv 32 -Pn tcp -Ps 1 -Pa 0 -Pf 0 -Po 0 
s -t 6.544090437 -Hs 1 -Hd 4 -Ni 1 -Nx 400.00 -Ny 50.00 -Nz 0.00 -Ne -1.000000 -Nl RTR -Nw --- -Ma 0 -Md 0 -Ms 0 -Mt 0 -Is 1.0 -Id 0.0 -It ack -Il 40 -If 1 -Ii 8 -Iv 30 -Pn tcp -Ps 1 -Pa 0 -Pf 0 -Po 0 
r -t 6.546075527 -Hs 4 -Hd 4 -Ni 4 -Nx 307.42 -Ny 107.64 -Nz 0.00 -Ne -1.000000 -Nl RTR -Nw --- -Ma 13a -Md 4 -Ms 1 -Mt 800 -Is 1.0 -Id 0.0 -It ack -Il 40 -If 1 -Ii 8 -Iv 30 -Pn tcp -Ps 1 -Pa 0 -Pf 1 -Po 0 
f -t 6.546075527 -Hs 4 -Hd 0 -Ni 4 -Nx 307.42 -Ny 107.64 -Nz 0.00 -Ne -1.000000 -Nl RTR -Nw --- -Ma 13a -Md 4 -Ms 1 -Mt 800 -Is 1.0 -Id 0.0 -It ack -Il 40 -If 1 -Ii 8 -Iv 29 -Pn tcp -Ps 1 -Pa 0 -Pf 1 -Po 0 
r -t 6.547961876 -Hs 0 -Hd 0 -Ni 0 -Nx 108.17 -Ny 232.14 -Nz 0.00 -Ne -1.000000 -Nl AGT -Nw --- -Ma 13a -Md 0 -Ms 4 -Mt 800 -Is 1.0 -Id 0.0 -It ack -Il 40 -If 1 -Ii 8 -Iv 29 -Pn tcp -Ps 1 -Pa 0 -Pf 2 -Po 0 
s -t 6.547961876 -Hs 0 -Hd -2 -Ni 0 -Nx 108.17 -Ny 232.14 -Nz 0.00 -Ne -1.000000 -Nl AGT -Nw --- -Ma 0 -Md 0 -Ms 0 -Mt 0 -Is 0.0 -Id 1.0 -It tcp -Il 1040 -If 1 -Ii 9 -Iv 32 -Pn tcp -Ps 2 -Pa 0 -Pf 0 -Po 0 
r -t 6.547961876 -Hs 0 -Hd -2 -Ni 0 -Nx 108.17 -Ny 232.14 -Nz 0.00 -Ne -1.000000 -Nl RTR -Nw --- -Ma 0 -Md 0 -Ms 0 -Mt 0 -Is 0.0 -Id 1.0 -It tcp -Il 1040 -If 1 -Ii 9 -Iv 32 -Pn tcp -Ps 2 -Pa 0 -Pf 0 -Po 0 
s -t 6.547961876 -Hs 0 -Hd -2 -Ni 0 -Nx 108.17 -Ny 232.14 -Nz 0.00 -Ne -1.000000 -Nl AGT -Nw --- -Ma 0 -Md 0 -Ms 0 -Mt 0 -Is 0.0 -Id 1.0 -It tcp -Il 1040 -If 1 -Ii 10 -Iv 32 -Pn tcp -Ps 3 -Pa 0 -Pf 0 -Po 0 
r -t 6.547961876 -Hs 0 -Hd -2 -Ni 0 -Nx 108.17 -Ny 232.14 -Nz 0.00 -Ne -1.000000 -Nl RTR -Nw --- -Ma 0 -Md 0 -Ms 0 -Mt 0 -Is 0.0 -Id 1.0 -It tcp -Il 1040 -If 1 -Ii 10 -Iv 32 -Pn tcp -Ps 3 -Pa 0 -Pf 0 -Po 0 
s -t 6.547961876 -Hs 0 -Hd 4 -Ni 0 -Nx 108.17 -Ny 232.14 -Nz 0.00 -Ne -1.000000 -Nl RTR -Nw --- -Ma 0 -Md 0 -Ms 0 -Mt 0 -Is 0.0 -Id 1.0 -It tcp -Il 1040 -If 1 -Ii 9 -Iv 30 -Pn tcp -Ps 2 -Pa 0 -Pf 0 -Po 0 
s -t 6.547961876 -Hs 0 -Hd 4 -Ni 0 -Nx 108.17 -Ny 232.14 -Nz 0.00 -Ne -1.000000 -Nl RTR -Nw --- -Ma 0 -Md 0 -Ms 0 -Mt 0 -Is 0.0 -Id 1.0 -It tcp -Il 1040 -If 1 -Ii 10 -Iv 30 -Pn tcp -Ps 3 -Pa 0 -Pf 0 -Po 0 
r -t 6.549908225 -Hs 4 -Hd 4 -Ni 4 -Nx 307.23 -Ny 107.62 -Nz 0.00 -Ne -1.000000 -Nl RTR -Nw --- -Ma 13a -Md 4 -Ms 0 -Mt 800 -Is 0.0 -Id 1.0 -It tcp -Il 40 -If 1 -Ii 4 -Iv 30 -Pn tcp -Ps 0 -Pa 0 -Pf 1 -Po 0 
f -t 6.549908225 -Hs 4 -Hd 1 -Ni 4 -Nx 307.23 -Ny 107.62 -Nz 0.00 -Ne -1.000000 -Nl RTR -Nw --- -Ma 13a -Md 4 -Ms 0 -Mt 800 -Is 0.0 -Id 1.0 -It tcp -Il 40 -If 1 -Ii 4 -Iv 29 -Pn tcp -Ps 0 -Pa 0 -Pf 1 -Po 0 
r -t 6.559735355 -Hs 4 -Hd 4 -Ni 4 -Nx 306.75 -Ny 107.55 -Nz 0.00 -Ne -1.000000 -Nl RTR -Nw --- -Ma 13a -Md 4 -Ms 0 -Mt 800 -Is 0.0 -Id 1.0 -It tcp -Il 1040 -If 1 -Ii 9 -Iv 30 -Pn tcp -Ps 2 -Pa 0 -Pf 1 -Po 0 
f -t 6.559735355 -Hs 4 -Hd 1 -Ni 4 -Nx 306.75 -Ny 107.55 -Nz 0.00 -Ne -1.000000 -Nl RTR -Nw --- -Ma 13a -Md 4 -Ms 0 -Mt 800 -Is 0.0 -Id 1.0 -It tcp -Il 1040 -If 1 -Ii 9 -Iv 29 -Pn tcp -Ps 2 -Pa 0 -Pf 1 -Po 0 
r -t 6.561760452 -Hs 1 -Hd 1 -Ni 1 -Nx 400.00 -Ny 50.00 -Nz 0.00 -Ne -1.000000 -Nl AGT -Nw --- -Ma 13a -Md 1 -Ms 4 -Mt 800 -Is 0.0 -Id 1.0 -It tcp -Il 40 -If 1 -Ii 4 -Iv 29 -Pn tcp -Ps 0 -Pa 0 -Pf 2 -Po 0 
s -t 6.561760452 -Hs 1 -Hd -2 -Ni 1 -Nx 400.00 -Ny 50.00 -Nz 0.00 -Ne -1.000000 -Nl AGT -Nw --- -Ma 0 -Md 0 -Ms 0 -Mt 0 -Is 1.0 -Id 0.0 -It ack -Il 40 -If 1 -Ii 11 -Iv 32 -Pn tcp -Ps 1 -Pa 0 -Pf 0 -Po 0 
r -t 6.561760452 -Hs 1 -Hd -2 -Ni 1 -Nx 400.00 -Ny 50.00 -Nz 0.00 -Ne -1.000000 -Nl RTR -Nw --- -Ma 0 -Md 0 -Ms 0 -Mt 0 -Is 1.0 -Id 0.0 -It ack -Il 40 -If 1 -Ii 11 -Iv 32 -Pn tcp -Ps 1 -Pa 0 -Pf 0 -Po 0 
s -t 6.561760452 -Hs 1 -Hd 4 -Ni 1 -Nx 400.00 -Ny 50.00 -Nz 0.00 -Ne -1.000000 -Nl RTR -Nw --- -Ma 0 -Md 0 -Ms 0 -Mt 0 -Is 1.0 -Id 0.0 -It ack -Il 40 -If 1 -Ii 11 -Iv 30 -Pn tcp -Ps 1 -Pa 0 -Pf 0 -Po 0 
r -t 6.571865914 -Hs 1 -Hd 1 -Ni 1 -Nx 400.00 -Ny 50.00 -Nz 0.00 -Ne -1.000000 -Nl AGT -Nw --- -Ma 13a -Md 1 -Ms 4 -Mt 800 -Is 0.0 -Id 1.0 -It tcp -Il 1040 -If 1 -Ii 9 -Iv 29 -Pn tcp -Ps 2 -Pa 0 -Pf 2 -Po 0 
s -t 6.571865914 -Hs 1 -Hd -2 -Ni 1 -Nx 400.00 -Ny 50.00 -Nz 0.00 -Ne -1.000000 -Nl AGT -Nw --- -Ma 0 -Md 0 -Ms 0 -Mt 0 -Is 1.0 -Id 0.0 -It ack -Il 40 -If 1 -Ii 12 -Iv 32 -Pn tcp -Ps 2 -Pa 0 -Pf 0 -Po 0 
r -t 6.571865914 -Hs 1 -Hd -2 -Ni 1 -Nx 400.00 -Ny 50.00 -Nz 0.00 -Ne -1.000000 -Nl RTR -Nw --- -Ma 0 -Md 0 -Ms 0 -Mt 0 -Is 1.0 -Id 0.0 -It ack -Il 40 -If 1 -Ii 12 -Iv 32 -Pn tcp -Ps 2 -Pa 0 -Pf 0 -Po 0 
s -t 6.571865914 -Hs 1 -Hd 4 -Ni 1 -Nx 400.00 -Ny 50.00 -Nz 0.00 -Ne -1.000000 -Nl RTR -Nw --- -Ma 0 -Md 0 -Ms 0 -Mt 0 -Is 1.0 -Id 0.0 -It ack -Il 40 -If 1 -Ii 12 -Iv 30 -Pn tcp -Ps 2 -Pa 0 -Pf 0 -Po 0 
r -t 6.573711015 -Hs 4 -Hd 4 -Ni 4 -Nx 306.06 -Ny 107.46 -Nz 0.00 -Ne -1.000000 -Nl RTR -Nw --- -Ma 13a -Md 4 -Ms 1 -Mt 800 -Is 1.0 -Id 0.0 -It ack -Il 40 -If 1 -Ii 11 -Iv 30 -Pn tcp -Ps 1 -Pa 0 -Pf 1 -Po 0 
f -t 6.573711015 -Hs 4 -Hd 0 -Ni 4 -Nx 306.06 -Ny 107.46 -Nz 0.00 -Ne -1.000000 -Nl RTR -Nw --- -Ma 13a -Md 4 -Ms 1 -Mt 800 -Is 1.0 -Id 0.0 -It ack -Il 40 -If 1 -Ii 11 -Iv 29 -Pn tcp -Ps 1 -Pa 0 -Pf 1 -Po 0 
r -t 6.583648137 -Hs 4 -Hd 4 -Ni 4 -Nx 305.56 -Ny 107.39 -Nz 0.00 -Ne -1.000000 -Nl RTR -Nw --- -Ma 13a -Md 4 -Ms 0 -Mt 800 -Is 0.0 -Id 1.0 -It tcp -Il 1040 -If 1 -Ii 10 -Iv 30 -Pn tcp -Ps 3 -Pa 0 -Pf 1 -Po 0 
f -t 6.583648137 -Hs 4 -Hd 1 -Ni 4 -Nx 305.56 -Ny 107.39 -Nz 0.00 -Ne -1.000000 -Nl RTR -Nw --- -Ma 13a -Md 4 -Ms 0 -Mt 800 -Is 0.0 -Id 1.0 -It tcp -Il 1040 -If 1 -Ii 10 -Iv 29 -Pn tcp -Ps 3 -Pa 0 -Pf 1 -Po 0 
r -t 6.585663610 -Hs 4 -Hd 4 -Ni 4 -Nx 305.46 -Ny 107.38 -Nz 0.00 -Ne -1.000000 -Nl RTR -Nw --- -Ma 13a -Md 4 -Ms 1 -Mt 800 -Is 1.0 -Id 0.0 -It ack -Il 40 -If 1 -Ii 12 -Iv 30 -Pn tcp -Ps 2 -Pa 0 -Pf 1 -Po 0 
f -t 6.585663610 -Hs 4 -Hd 0 -Ni 4 -Nx 305.46 -Ny 107.38 -Nz 0.00 -Ne -1.000000 -Nl RTR -Nw --- -Ma 13a -Md 4 -Ms 1 -Mt 800 -Is 1.0 -Id 0.0 -It ack -Il 40 -If 1 -Ii 12 -Iv 29 -Pn tcp -Ps 2 -Pa 0 -Pf 1 -Po 0 
r -t 6.587689948 -Hs 0 -Hd 0 -Ni 0 -Nx 108.84 -Ny 234.02 -Nz 0.00 -Ne -1.000000 -Nl AGT -Nw --- -Ma 13a -Md 0 -Ms 4 -Mt 800 -Is 1.0 -Id 0.0 -It ack -Il 40 -If 1 -Ii 11 -Iv 29 -Pn tcp -Ps 1 -Pa 0 -Pf 2 -Po 0 
s -t 6.587689948 -Hs 0 -Hd -2 -Ni 0 -Nx 108.84 -Ny 234.02 -Nz 0.00 -Ne -1.000000 -Nl AGT -Nw --- -Ma 0 -Md 0 -Ms 0 -Mt 0 -Is 0.0 -Id 1.0 -It tcp -Il 1040 -If 1 -Ii 13 -Iv 32 -Pn tcp -Ps 4 -Pa 0 -Pf 0 -Po 0 
r -t 6.587689948 -Hs 0 -Hd -2 -Ni 0 -Nx 108.84 -Ny 234.02 -Nz 0.00 -Ne -1.000000 -Nl RTR -Nw --- -Ma 0 -Md 0 -Ms 0 -Mt 0 -Is 0.0 -Id 1.0 -It tcp -Il 1040 -If 1 -Ii 13 -Iv 32 -Pn tcp -Ps 4 -Pa 0 -Pf 0 -Po 0 
s -t 6.587689948 -Hs 0 -Hd 4 -Ni 0 -Nx 108.84 -Ny 234.02 -Nz 0.00 -Ne -1.000000 -Nl RTR -Nw --- -Ma 0 -Md 0 -Ms 0 -Mt 0 -Is 0.0 -Id 1.0 -It tcp -Il 1040 -If 1 -Ii 13 -Iv 30 -Pn tcp -Ps 4 -Pa 0 -Pf 0 -Po 0 
r -t 6.597556286 -Hs 4 -Hd 4 -Ni 4 -Nx 304.87 -Ny 107.30 -Nz 0.00 -Ne -1.000000 -Nl RTR -Nw --- -Ma 13a -Md 4 -Ms 0 -Mt 800 -Is 0.0 -Id 1.0 -It tcp -Il 1040 -If 1 -Ii 13 -Iv 30 -Pn tcp -Ps 4 -Pa 0 -Pf 1 -Po 0 
f -t 6.597556286 -Hs 4 -Hd 1 -Ni 4 -Nx 304.87 -Ny 107.30 -Nz 0.00 -Ne -1.000000 -Nl RTR -Nw --- -Ma 13a -Md 4 -Ms 0 -Mt 800 -Is 0.0 -Id 1.0 -It tcp -Il 1040 -If 1 -Ii 13 -Iv 29 -Pn tcp -Ps 4 -Pa 0 -Pf 1 -Po 0 
r -t 6.607821397 -Hs 1 -Hd 1 -Ni 1 -Nx 400.00 -Ny 50.00 -Nz 0.00 -Ne -1.000000 -Nl AGT -Nw --- -Ma 13a -Md 1 -Ms 4 -Mt 800 -Is 0.0 -Id 1.0 -It tcp -Il 1040 -If 1 -Ii 10 -Iv 29 -Pn tcp -Ps 3 -Pa 0 -Pf 2 -Po 0 
s -t 6.607821397 -Hs 1 -Hd -2 -Ni 1 -Nx 400.00 -Ny 50.00 -Nz 0.00 -Ne -1.000000 -Nl AGT -Nw --- -Ma 0 -Md 0 -Ms 0 -Mt 0 -Is 1.0 -Id 0.0 -It ack -Il 40 -If 1 -Ii 14 -Iv 32 -Pn tcp -Ps 3 -Pa 0 -Pf 0 -Po 0 
r -t 6.607821397 -Hs 1 -Hd -2 -Ni 1 -Nx 400.00 -Ny 50.00 -Nz 0.00 -Ne -1.000000 -Nl RTR -Nw --- -Ma 0 -Md 0 -Ms 0 -Mt 0 -Is 1.0 -Id 0.0 -It ack -Il 40 -If 1 -Ii 14 -Iv 32 -Pn tcp -Ps 3 -Pa 0 -Pf 0 -Po 0 
s -t 6.607821397 -Hs 1 -Hd 4 -Ni 1 -Nx 400.00 -Ny 50.00 -Nz 0.00 -Ne -1.000000 -Nl RTR -Nw --- -Ma 0 -Md 0 -Ms 0 -Mt 0 -Is 1.0 -Id 0.0 -It ack -Il 40 -If 1 -Ii 14 -Iv 30 -Pn tcp -Ps 3 -Pa 0 -Pf 0 -Po 0 
r -t 6.609748101 -Hs 0 -Hd 0 -Ni 0 -Nx 109.20 -Ny 235.06 -Nz 0.00 -Ne -1.000000 -Nl AGT -Nw --- -Ma 13a -Md 0 -Ms 4 -Mt 800 -Is 1.0 -Id 0.0 -It ack -Il 40 -If 1 -Ii 12 -Iv 29 -Pn tcp -Ps 2 -Pa 0 -Pf 2 -Po 0 
r -t 6.619653994 -Hs 1 -Hd 1 -Ni 1 -Nx 400.00 -Ny 50.00 -Nz 0.00 -Ne -1.000000 -Nl AGT -Nw --- -Ma 13a -Md 1 -Ms 4 -Mt 800 -Is 0.0 -Id 1.0 -It tcp -Il 1040 -If 1 -Ii 13 -Iv 29 -Pn tcp -Ps 4 -Pa 0 -Pf 2 -Po 0 
s -t 6.619653994 -Hs 1 -Hd -2 -Ni 1 -Nx 400.00 -Ny 50.00 -Nz 0.00 -Ne -1.000000 -Nl AGT -Nw --- -Ma 0 -Md 0 -Ms 0 -Mt 0 -Is 1.0 -Id 0.0 -It ack -Il 40 -If 1 -Ii 15 -Iv 32 -Pn tcp -Ps 4 -Pa 0 -Pf 0 -Po 0 
r -t 6.619653994 -Hs 1 -Hd -2 -Ni 1 -Nx 400.00 -Ny 50.00 -Nz 0.00 -Ne -1.000000 -Nl RTR -Nw --- -Ma 0 -Md 0 -Ms 0 -Mt 0 -Is 1.0 -Id 0.0 -It ack -Il 40 -If 1 -Ii 15 -Iv 32 -Pn tcp -Ps 4 -Pa 0 -Pf 0 -Po 0 
s -t 6.619653994 -Hs 1 -Hd 4 -Ni 1 -Nx 400.00 -Ny 50.00 -Nz 0.00 -Ne -1.000000 -Nl RTR -Nw --- -Ma 0 -Md 0 -Ms 0 -Mt 0 -Is 1.0 -Id 0.0 -It ack -Il 40 -If 1 -Ii 15 -Iv 30 -Pn tcp -Ps 4 -Pa 0 -Pf 0 -Po 0 
r -t 6.621579113 -Hs 4 -Hd 4 -Ni 4 -Nx 303.68 -Ny 107.14 -Nz 0.00 -Ne -1.000000 -Nl RTR -Nw --- -Ma 13a -Md 4 -Ms 1 -Mt 800 -Is 1.0 -Id 0.0 -It ack -Il 40 -If 1 -Ii 14 -Iv 30 -Pn tcp -Ps 3 -Pa 0 -Pf 1 -Po 0 
f -t 6.621579113 -Hs 4 -Hd 0 -Ni 4 -Nx 303.68 -Ny 107.14 -Nz 0.00 -Ne -1.000000 -Nl RTR -Nw --- -Ma 13a -Md 4 -Ms 1 -Mt 800 -Is 1.0 -Id 0.0 -It ack -Il 40 -If 1 -Ii 14 -Iv 29 -Pn tcp -Ps 3 -Pa 0 -Pf 1 -Po 0 
r -t 6.623565442 -Hs 0 -Hd 0 -Ni 0 -Nx 109.44 -Ny 235.71 -Nz 0.00 -Ne -1.000000 -Nl AGT -Nw --- -Ma 13a -Md 0 -Ms 4 -Mt 800 -Is 1.0 -Id 0.0 -It ack -Il 40 -If 1 -Ii 14 -Iv 29 -Pn tcp -Ps 3 -Pa 0 -Pf 2 -Po 0 
s -t 6.623565442 -Hs 0 -Hd -2 -Ni 0 -Nx 109.44 -Ny 235.71 -Nz 0.00 -Ne -1.000000 -Nl AGT -Nw --- -Ma 0 -Md 0 -Ms 0 -Mt 0 -Is 0.0 -Id 1.0 -It tcp -Il 1040 -If 1 -Ii 16 -Iv 32 -Pn tcp -Ps 5 -Pa 0 -Pf 0 -Po 0 
r -t 6.623565442 -Hs 0 -Hd -2 -Ni 0 -Nx 109.44 -Ny 235.71 -Nz 0.00 -Ne -1.000000 -Nl RTR -Nw --- -Ma 0 -Md 0 -Ms 0 -Mt 0 -Is 0.0 -Id 1.0 -It tcp -Il 1040 -If 1 -Ii 16 -Iv 32 -Pn tcp -Ps 5 -Pa 0 -Pf 0 -Po 0 
s -t 6.623565442 -Hs 0 -Hd 4 -Ni 0 -Nx 109.44 -Ny 235.71 -Nz 0.00 -Ne -1.000000 -Nl RTR -Nw --- -Ma 0 -Md 0 -Ms 0 -Mt 0 -Is 0.0 -Id 1.0 -It tcp -Il 1040 -If 1 -Ii 16 -Iv 30 -Pn tcp -Ps 5 -Pa 0 -Pf 0 -Po 0 
r -t 6.633451771 -Hs 4 -Hd 4 -Ni 4 -Nx 303.09 -Ny 107.07 -Nz 0.00 -Ne -1.000000 -Nl RTR -Nw --- -Ma 13a -Md 4 -Ms 0 -Mt 800 -Is 0.0 -Id 1.0 -It tcp -Il 1040 -If 1 -Ii 16 -Iv 30 -Pn tcp -Ps 5 -Pa 0 -Pf 1 -Po 0 
f -t 6.633451771 -Hs 4 -Hd 1 -Ni 4 -Nx 303.09 -Ny 107.07 -Nz 0.00 -Ne -1.000000 -Nl RTR -Nw --- -Ma 13a -Md 4 -Ms 0 -Mt 800 -Is 0.0 -Id 1.0 -It tcp -Il 1040 -If 1 -Ii 16 -Iv 29 -Pn tcp -Ps 5 -Pa 0 -Pf 1 -Po 0 
r -t 6.635367269 -Hs 4 -Hd 4 -Ni 4 -Nx 303.00 -Ny 107.05 -Nz 0.00 -Ne -1.000000 -Nl RTR -Nw --- -Ma 13a -Md 4 -Ms 1 -Mt 800 -Is 1.0 -Id 0.0 -It ack -Il 40 -If 1 -Ii 15 -Iv 30 -Pn tcp -Ps 4 -Pa 0 -Pf 1 -Po 0 
f -t 6.635367269 -Hs 4 -Hd 0 -Ni 4 -Nx 303.00 -Ny 107.05 -Nz 0.00 -Ne -1.000000 -Nl RTR -Nw --- -Ma 13a -Md 4 -Ms 1 -Mt 800 -Is 1.0 -Id 0.0 -It ack -Il 40 -If 1 -Ii 15 -Iv 29 -Pn tcp -Ps 4 -Pa 0 -Pf 1 -Po 0 
r -t 6.645412395 -Hs 1 -Hd 1 -Ni 1 -Nx 400.00 -Ny 50.00 -Nz 0.00 -Ne -1.000000 -Nl AGT -Nw --- -Ma 13a -Md 1 -Ms 4 -Mt 800 -Is 0.0 -Id 1.0 -It tcp -Il 1040 -If 1 -Ii 16 -Iv 29 -Pn tcp -Ps 5 -Pa 0 -Pf 2 -Po 0 
s -t 6.645412395 -Hs 1 -Hd -2 -Ni 1 -Nx 400.00 -Ny 50.00 -Nz 0.00 -Ne -1.000000 -Nl AGT -Nw --- -Ma 0 -Md 0 -Ms 0 -Mt 0 -Is 1.0 -Id 0.0 -It ack -Il 40 -If 1 -Ii 17 -Iv 32 -Pn tcp -Ps 5 -Pa 0 -Pf 0 -Po 0 
r -t 6.645412395 -Hs 1 -Hd -2 -Ni 1 -Nx 400.00 -Ny 50.00 -Nz 0.00 -Ne -1.000000 -Nl RTR -Nw --- -Ma 0 -Md 0 -Ms 0 -Mt 0 -Is 1.0 -Id 0.0 -It ack -Il 40 -If 1 -Ii 17 -Iv 32 -Pn tcp -Ps 5 -Pa 0 -Pf 0 -Po 0 
s -t 6.645412395 -Hs 1 -Hd 4 -Ni 1 -Nx 400.00 -Ny 50.00 -Nz 0.00 -Ne -1.000000 -Nl RTR -Nw --- -Ma 0 -Md 0 -Ms 0 -Mt 0 -Is 1.0 -Id 0.0 -It ack -Il 40 -If 1 -Ii 17 -Iv 30 -Pn tcp -Ps 5 -Pa 0 -Pf 0 -Po 0 
r -t 6.647297524 -Hs 4 -Hd 4 -Ni 4 -Nx 302.41 -Ny 106.97 -Nz 0.00 -Ne -1.000000 -Nl RTR -Nw --- -Ma 13a -Md 4 -Ms 1 -Mt 800 -Is 1.0 -Id 0.0 -It ack -Il 40 -If 1 -Ii 17 -Iv 30 -Pn tcp -Ps 5 -Pa 0 -Pf 1 -Po 0 
f -t 6.647297524 -Hs 4 -Hd 0 -Ni 4 -Nx 302.41 -Ny 106.97 -Nz 0.00 -Ne -1.000000 -Nl RTR -Nw --- -Ma 13a -Md 4 -Ms 1 -Mt 800 -Is 1.0 -Id 0.0 -It ack -Il 40 -If 1 -Ii 17 -Iv 29 -Pn tcp -Ps 5 -Pa 0 -Pf 1 -Po 0 
r -t 6.649643847 -Hs 0 -Hd 0 -Ni 0 -Nx 109.87 -Ny 236.93 -Nz 0.00 -Ne -1.000000 -Nl AGT -Nw --- -Ma 13a -Md 0 -Ms 4 -Mt 800 -Is 1.0 -Id 0.0 -It ack -Il 40 -If 1 -Ii 15 -Iv 29 -Pn tcp -Ps 4 -Pa 0 -Pf 2 -Po 0 
s -t 6.649643847 -Hs 0 -Hd -2 -Ni 0 -Nx 109.87 -Ny 236.93 -Nz 0.00 -Ne -1.000000 -Nl AGT -Nw --- -Ma 0 -Md 0 -Ms 0 -Mt 0 -Is 0.0 -Id 1.0 -It tcp -Il 1040 -If 1 -Ii 18 -Iv 32 -Pn tcp -Ps 6 -Pa 0 -Pf 0 -Po 0 
r -t 6.649643847 -Hs 0 -Hd -2 -Ni 0 -Nx 109.87 -Ny 236.93 -Nz 0.00 -Ne -1.000000 -Nl RTR -Nw --- -Ma 0 -Md 0 -Ms 0 -Mt 0 -Is 0.0 -Id 1.0 -It tcp -Il 1040 -If 1 -Ii 18 -Iv 32 -Pn tcp -Ps 6 -Pa 0 -Pf 0 -Po 0 
s -t 6.649643847 -Hs 0 -Hd -2 -Ni 0 -Nx 109.87 -Ny 236.93 -Nz 0.00 -Ne -1.000000 -Nl AGT -Nw --- -Ma 0 -Md 0 -Ms 0 -Mt 0 -Is 0.0 -Id 1.0 -It tcp -Il 1040 -If 1 -Ii 19 -Iv 32 -Pn tcp -Ps 7 -Pa 0 -Pf 0 -Po 0 
r -t 6.649643847 -Hs 0 -Hd -2 -Ni 0 -Nx 109.87 -Ny 236.93 -Nz 0.00 -Ne -1.000000 -Nl RTR -Nw --- -Ma 0 -Md 0 -Ms 0 -Mt 0 -Is 0.0 -Id 1.0 -It tcp -Il 1040 -If 1 -Ii 19 -Iv 32 -Pn tcp -Ps 7 -Pa 0 -Pf 0 -Po 0 
s -t 6.649643847 -Hs 0 -Hd 4 -Ni 0 -Nx 109.87 -Ny 236.93 -Nz 0.00 -Ne -1.000000 -Nl RTR -Nw --- -Ma 0 -Md 0 -Ms 0 -Mt 0 -Is 0.0 -Id 1.0 -It tcp -Il 1040 -If 1 -Ii 18 -Iv 30 -Pn tcp -Ps 6 -Pa 0 -Pf 0 -Po 0 
s -t 6.649643847 -Hs 0 -Hd 4 -Ni 0 -Nx 109.87 -Ny 236.93 -Nz 0.00 -Ne -1.000000 -Nl RTR -Nw --- -Ma 0 -Md 0 -Ms 0 -Mt 0 -Is 0.0 -Id 1.0 -It tcp -Il 1040 -If 1 -Ii 19 -Iv 30 -Pn tcp -Ps 7 -Pa 0 -Pf 0 -Po 0 
r -t 6.651910942 -Hs 0 -Hd 0 -Ni 0 -Nx 109.91 -Ny 237.04 -Nz 0.00 -Ne -1.000000 -Nl AGT -Nw --- -Ma 13a -Md 0 -Ms 4 -Mt 800 -Is 1.0 -Id 0.0 -It ack -Il 40 -If 1 -Ii 17 -Iv 29 -Pn tcp -Ps 5 -Pa 0 -Pf 2 -Po 0 
s -t 6.651910942 -Hs 0 -Hd -2 -Ni 0 -Nx 109.91 -Ny 237.04 -Nz 0.00 -Ne -1.000000 -Nl AGT -Nw --- -Ma 0 -Md 0 -Ms 0 -Mt 0 -Is 0.0 -Id 1.0 -It tcp -Il 1040 -If 1 -Ii 20 -Iv 32 -Pn tcp -Ps 8 -Pa 0 -Pf 0 -Po 0 
r -t 6.651910942 -Hs 0 -Hd -2 -Ni 0 -Nx 109.91 -Ny 237.04 -Nz 0.00 -Ne -1.000000 -Nl RTR -Nw --- -Ma 0 -Md 0 -Ms 0 -Mt 0 -Is 0.0 -Id 1.0 -It tcp -Il 1040 -If 1 -Ii 20 -Iv 32 -Pn tcp -Ps 8 -Pa 0 -Pf 0 -Po 0 
s -t 6.651910942 -Hs 0 -Hd 4 -Ni 0 -Nx 109.91 -Ny 237.04 -Nz 0.00 -Ne -1.000000 -Nl RTR -Nw --- -Ma 0 -Md 0 -Ms 0 -Mt 0 -Is 0.0 -Id 1.0 -It tcp -Il 1040 -If 1 -Ii 20 -Iv 30 -Pn tcp -Ps 8 -Pa 0 -Pf 0 -Po 0 
r -t 6.661897264 -Hs 4 -Hd 4 -Ni 4 -Nx 301.68 -Ny 106.88 -Nz 0.00 -Ne -1.000000 -Nl RTR -Nw --- -Ma 13a -Md 4 -Ms 0 -Mt 800 -Is 0.0 -Id 1.0 -It tcp -Il 1040 -If 1 -Ii 18 -Iv 30 -Pn tcp -Ps 6 -Pa 0 -Pf 1 -Po 0 
f -t 6.661897264 -Hs 4 -Hd 1 -Ni 4 -Nx 301.68 -Ny 106.88 -Nz 0.00 -Ne -1.000000 -Nl RTR -Nw --- -Ma 13a -Md 4 -Ms 0 -Mt 800 -Is 0.0 -Id 1.0 -It tcp -Il 1040 -If 1 -Ii 18 -Iv 29 -Pn tcp -Ps 6 -Pa 0 -Pf 1 -Po 0 
r -t 6.672024355 -Hs 4 -Hd 4 -Ni 4 -Nx 301.18 -Ny 106.81 -Nz 0.00 -Ne -1.000000 -Nl RTR -Nw --- -Ma 13a -Md 4 -Ms 0 -Mt 800 -Is 0.0 -Id 1.0 -It tcp -Il 1040 -If 1 -Ii 19 -Iv 30 -Pn tcp -Ps 7 -Pa 0 -Pf 1 -Po 0 
f -t 6.672024355 -Hs 4 -Hd 1 -Ni 4 -Nx 301.18 -Ny 106.81 -Nz 0.00 -Ne -1.000000 -Nl RTR -Nw --- -Ma 13a -Md 4 -Ms 0 -Mt 800 -Is 0.0 -Id 1.0 -It tcp -Il 1040 -If 1 -Ii 19 -Iv 29 -Pn tcp -Ps 7 -Pa 0 -Pf 1 -Po 0 
r -t 6.681949496 -Hs 1 -Hd 1 -Ni 1 -Nx 400.00 -Ny 50.00 -Nz 0.00 -Ne -1.000000 -Nl AGT -Nw --- -Ma 13a -Md 1 -Ms 4 -Mt 800 -Is 0.0 -Id 1.0 -It tcp -Il 1040 -If 1 -Ii 18 -Iv 29 -Pn tcp -Ps 6 -Pa 0 -Pf 2 -Po 0 
s -t 6.681949496 -Hs 1 -Hd -2 -Ni 1 -Nx 400.00 -Ny 50.00 -Nz 0.00 -Ne -1.000000 -Nl AGT -Nw --- -Ma 0 -Md 0 -Ms 0 -Mt 0 -Is 1.0 -Id 0.0 -It ack -Il 40 -If 1 -Ii 21 -Iv 32 -Pn tcp -Ps 6 -Pa 0 -Pf 0 -Po 0 