n -t * -s 0  -x 5 -y 5 -Z 0 -z 50  -v circle -c black
n -t * -s 1  -x 490 -y 285 -Z 0 -z 50  -v circle -c black
n -t * -s 2  -x 150 -y 240 -Z 0 -z 50  -v circle -c black
n -t * -s 3  -x 980 -y 500 -Z 0 -z 50  -v circle -c black
n -t * -s 4  -x 500 -y 100 -Z 0 -z 50  -v circle -c black
V -t * -v 1.0a5 -a 0
W -t * -x 1000 -y 800
A -t * -n 1 -p 0 -o 0x7fffffff -c 30 -a 1
A -t * -h 1 -m 1073741823 -s 0
+ -t 0.100000000 -s 3 -d -1 -p tcp -e 40 -c 2 -a 0 -i 0 -k AGT 
- -t 0.100000000 -s 3 -d -1 -p tcp -e 40 -c 2 -a 0 -i 0 -k AGT
h -t 0.100000000 -s 3 -d -1 -p tcp -e 40 -c 2 -a 0 -i 0 -k AGT
+ -t 0.100000000 -s 3 -d -1 -p AODV -e 48 -c 2 -a 0 -i 0 -k RTR 
- -t 0.100000000 -s 3 -d -1 -p AODV -e 48 -c 2 -a 0 -i 0 -k RTR
h -t 0.100000000 -s 3 -d -1 -p AODV -e 48 -c 2 -a 0 -i 0 -k RTR
+ -t 0.500000000 -s 0 -d -1 -p tcp -e 40 -c 2 -a 0 -i 1 -k AGT 
- -t 0.500000000 -s 0 -d -1 -p tcp -e 40 -c 2 -a 0 -i 1 -k AGT
h -t 0.500000000 -s 0 -d -1 -p tcp -e 40 -c 2 -a 0 -i 1 -k AGT
+ -t 0.500000000 -s 0 -d -1 -p AODV -e 48 -c 2 -a 0 -i 0 -k RTR 
- -t 0.500000000 -s 0 -d -1 -p AODV -e 48 -c 2 -a 0 -i 0 -k RTR
h -t 0.500000000 -s 0 -d -1 -p AODV -e 48 -c 2 -a 0 -i 0 -k RTR
+ -t 0.800000000 -s 4 -d -1 -p tcp -e 40 -c 2 -a 0 -i 2 -k AGT 
- -t 0.800000000 -s 4 -d -1 -p tcp -e 40 -c 2 -a 0 -i 2 -k AGT
h -t 0.800000000 -s 4 -d -1 -p tcp -e 40 -c 2 -a 0 -i 2 -k AGT
+ -t 0.800000000 -s 4 -d -1 -p AODV -e 48 -c 2 -a 0 -i 0 -k RTR 
- -t 0.800000000 -s 4 -d -1 -p AODV -e 48 -c 2 -a 0 -i 0 -k RTR
h -t 0.800000000 -s 4 -d -1 -p AODV -e 48 -c 2 -a 0 -i 0 -k RTR
r -t 0.801148618 -s 1 -d -1 -p AODV -e 48 -c 2 -a 0 -i 0 -k RTR
+ -t 0.807537269 -s 1 -d -1 -p AODV -e 48 -c 2 -a 0 -i 0 -k RTR 
- -t 0.807537269 -s 1 -d -1 -p AODV -e 48 -c 2 -a 0 -i 0 -k RTR
h -t 0.807537269 -s 1 -d -1 -p AODV -e 48 -c 2 -a 0 -i 0 -k RTR
r -t 0.808745887 -s 4 -d -1 -p AODV -e 48 -c 2 -a 0 -i 0 -k RTR
n -t 1.000000 -s 0 -x 5.000000 -y 5.000000 -U 27.112135 -V 12.842590 -T 3.503966
n -t 1.500000 -s 1 -x 490.000000 -y 285.000000 -U -17.882363 -V -46.692838 -T 5.032892
n -t 2.000000 -s 0 -x 32.112135 -y 17.842590 -U 16.723712 -V 47.120244 -T 7.049144
+ -t 2.000000000 -s 3 -d -1 -p AODV -e 48 -c 2 -a 0 -i 0 -k RTR 
- -t 2.000000000 -s 3 -d -1 -p AODV -e 48 -c 2 -a 0 -i 0 -k RTR
h -t 2.000000000 -s 3 -d -1 -p AODV -e 48 -c 2 -a 0 -i 0 -k RTR
n -t 2.500000 -s 4 -x 500.000000 -y 100.000000 -U -41.602515 -V 27.735010 -T 7.211103
+ -t 2.500000000 -s 0 -d -1 -p AODV -e 48 -c 2 -a 0 -i 0 -k RTR 
- -t 2.500000000 -s 0 -d -1 -p AODV -e 48 -c 2 -a 0 -i 0 -k RTR
h -t 2.500000000 -s 0 -d -1 -p AODV -e 48 -c 2 -a 0 -i 0 -k RTR
r -t 2.501108756 -s 2 -d -1 -p AODV -e 48 -c 2 -a 0 -i 0 -k RTR
+ -t 2.509706033 -s 2 -d -1 -p AODV -e 48 -c 2 -a 0 -i 0 -k RTR 
- -t 2.509706033 -s 2 -d -1 -p AODV -e 48 -c 2 -a 0 -i 0 -k RTR
h -t 2.509706033 -s 2 -d -1 -p AODV -e 48 -c 2 -a 0 -i 0 -k RTR
r -t 2.510814787 -s 0 -d -1 -p AODV -e 48 -c 2 -a 0 -i 0 -k RTR
n -t 3.000000 -s 3 -x 980.000000 -y 500.000000 -U -92.949071 -V -36.884552 -T 6.777905
+ -t 3.000000000 -s 4 -d -1 -p AODV -e 48 -c 2 -a 0 -i 0 -k RTR 
- -t 3.000000000 -s 4 -d -1 -p AODV -e 48 -c 2 -a 0 -i 0 -k RTR
h -t 3.000000000 -s 4 -d -1 -p AODV -e 48 -c 2 -a 0 -i 0 -k RTR
r -t 3.001288341 -s 1 -d -1 -p AODV -e 48 -c 2 -a 0 -i 0 -k RTR
+ -t 3.004775751 -s 1 -d -1 -p AODV -e 48 -c 2 -a 0 -i 0 -k RTR 
- -t 3.004775751 -s 1 -d -1 -p AODV -e 48 -c 2 -a 0 -i 0 -k RTR
h -t 3.004775751 -s 1 -d -1 -p AODV -e 48 -c 2 -a 0 -i 0 -k RTR
r -t 3.005944091 -s 4 -d -1 -p AODV -e 48 -c 2 -a 0 -i 0 -k RTR
+ -t 3.100000000 -s 3 -d -1 -p tcp -e 40 -c 2 -a 0 -i 3 -k AGT 
- -t 3.100000000 -s 3 -d -1 -p tcp -e 40 -c 2 -a 0 -i 3 -k AGT
h -t 3.100000000 -s 3 -d -1 -p tcp -e 40 -c 2 -a 0 -i 3 -k AGT
n -t 3.500000 -s 4 -x 458.397485 -y 127.735010 -U -49.562993 -V -6.596193 -T 4.204699
+ -t 3.500000000 -s 0 -d -1 -p tcp -e 40 -c 2 -a 0 -i 4 -k AGT 
- -t 3.500000000 -s 0 -d -1 -p tcp -e 40 -c 2 -a 0 -i 4 -k AGT
h -t 3.500000000 -s 0 -d -1 -p tcp -e 40 -c 2 -a 0 -i 4 -k AGT
+ -t 3.800000000 -s 4 -d -1 -p tcp -e 40 -c 2 -a 0 -i 5 -k AGT 
- -t 3.800000000 -s 4 -d -1 -p tcp -e 40 -c 2 -a 0 -i 5 -k AGT
h -t 3.800000000 -s 4 -d -1 -p tcp -e 40 -c 2 -a 0 -i 5 -k AGT
+ -t 6.000000000 -s 3 -d -1 -p AODV -e 48 -c 2 -a 0 -i 0 -k RTR 
- -t 6.000000000 -s 3 -d -1 -p AODV -e 48 -c 2 -a 0 -i 0 -k RTR
h -t 6.000000000 -s 3 -d -1 -p AODV -e 48 -c 2 -a 0 -i 0 -k RTR
+ -t 6.500000000 -s 0 -d -1 -p AODV -e 48 -c 2 -a 0 -i 0 -k RTR 
- -t 6.500000000 -s 0 -d -1 -p AODV -e 48 -c 2 -a 0 -i 0 -k RTR
h -t 6.500000000 -s 0 -d -1 -p AODV -e 48 -c 2 -a 0 -i 0 -k RTR
r -t 6.501128146 -s 2 -d -1 -p AODV -e 48 -c 2 -a 0 -i 0 -k RTR
r -t 6.501128787 -s 4 -d -1 -p AODV -e 48 -c 2 -a 0 -i 0 -k RTR
+ -t 6.503300382 -s 4 -d -1 -p AODV -e 48 -c 2 -a 0 -i 0 -k RTR 
- -t 6.503300382 -s 4 -d -1 -p AODV -e 48 -c 2 -a 0 -i 0 -k RTR
h -t 6.503300382 -s 4 -d -1 -p AODV -e 48 -c 2 -a 0 -i 0 -k RTR
r -t 6.504608739 -s 1 -d -1 -p AODV -e 48 -c 2 -a 0 -i 0 -k RTR
+ -t 6.504608739 -s 1 -d 4 -p AODV -e 44 -c 2 -a 0 -i 0 -k RTR 
- -t 6.504608739 -s 1 -d 4 -p AODV -e 44 -c 2 -a 0 -i 0 -k RTR
h -t 6.504608739 -s 1 -d 4 -p AODV -e 44 -c 2 -a 0 -i 0 -k RTR
r -t 6.504609072 -s 2 -d -1 -p AODV -e 48 -c 2 -a 0 -i 0 -k RTR
r -t 6.504609169 -s 0 -d -1 -p AODV -e 48 -c 2 -a 0 -i 0 -k RTR
+ -t 6.509314243 -s 4 -d 0 -p AODV -e 44 -c 2 -a 0 -i 0 -k RTR 
- -t 6.509314243 -s 4 -d 0 -p AODV -e 44 -c 2 -a 0 -i 0 -k RTR
h -t 6.509314243 -s 4 -d 0 -p AODV -e 44 -c 2 -a 0 -i 0 -k RTR
+ -t 6.509526398 -s 2 -d -1 -p AODV -e 48 -c 2 -a 0 -i 0 -k RTR 
- -t 6.509526398 -s 2 -d -1 -p AODV -e 48 -c 2 -a 0 -i 0 -k RTR
h -t 6.509526398 -s 2 -d -1 -p AODV -e 48 -c 2 -a 0 -i 0 -k RTR
r -t 6.510777076 -s 0 -d -1 -p AODV -e 48 -c 2 -a 0 -i 0 -k RTR
r -t 6.510777620 -s 4 -d -1 -p AODV -e 48 -c 2 -a 0 -i 0 -k RTR
+ -t 6.515056124 -s 0 -d 4 -p tcp -e 40 -c 2 -a 0 -i 1 -k RTR 
- -t 6.515056124 -s 0 -d 4 -p tcp -e 40 -c 2 -a 0 -i 1 -k RTR
h -t 6.515056124 -s 0 -d 4 -p tcp -e 40 -c 2 -a 0 -i 1 -k RTR
+ -t 6.517462481 -s 4 -d 1 -p tcp -e 40 -c 2 -a 0 -i 1 -k RTR 
- -t 6.517462481 -s 4 -d 1 -p tcp -e 40 -c 2 -a 0 -i 1 -k RTR
h -t 6.517462481 -s 4 -d 1 -p tcp -e 40 -c 2 -a 0 -i 1 -k RTR
r -t 6.519407560 -s 1 -d 1 -p tcp -e 40 -c 2 -a 0 -i 1 -k AGT
+ -t 6.519407560 -s 1 -d -1 -p ack -e 40 -c 2 -a 0 -i 6 -k AGT 
- -t 6.519407560 -s 1 -d -1 -p ack -e 40 -c 2 -a 0 -i 6 -k AGT
h -t 6.519407560 -s 1 -d -1 -p ack -e 40 -c 2 -a 0 -i 6 -k AGT
+ -t 6.519407560 -s 1 -d 4 -p ack -e 40 -c 2 -a 0 -i 6 -k RTR 
- -t 6.519407560 -s 1 -d 4 -p ack -e 40 -c 2 -a 0 -i 6 -k RTR
h -t 6.519407560 -s 1 -d 4 -p ack -e 40 -c 2 -a 0 -i 6 -k RTR
+ -t 6.521732639 -s 4 -d 0 -p ack -e 40 -c 2 -a 0 -i 6 -k RTR 
- -t 6.521732639 -s 4 -d 0 -p ack -e 40 -c 2 -a 0 -i 6 -k RTR
h -t 6.521732639 -s 4 -d 0 -p ack -e 40 -c 2 -a 0 -i 6 -k RTR
r -t 6.523738995 -s 0 -d 0 -p ack -e 40 -c 2 -a 0 -i 6 -k AGT
+ -t 6.523738995 -s 0 -d -1 -p tcp -e 1040 -c 2 -a 0 -i 7 -k AGT 
- -t 6.523738995 -s 0 -d -1 -p tcp -e 1040 -c 2 -a 0 -i 7 -k AGT
h -t 6.523738995 -s 0 -d -1 -p tcp -e 1040 -c 2 -a 0 -i 7 -k AGT
+ -t 6.523738995 -s 0 -d 4 -p tcp -e 1040 -c 2 -a 0 -i 7 -k RTR 
- -t 6.523738995 -s 0 -d 4 -p tcp -e 1040 -c 2 -a 0 -i 7 -k RTR
h -t 6.523738995 -s 0 -d 4 -p tcp -e 1040 -c 2 -a 0 -i 7 -k RTR
+ -t 6.525056124 -s 0 -d 4 -p tcp -e 40 -c 2 -a 0 -i 4 -k RTR 
- -t 6.525056124 -s 0 -d 4 -p tcp -e 40 -c 2 -a 0 -i 4 -k RTR
h -t 6.525056124 -s 0 -d 4 -p tcp -e 40 -c 2 -a 0 -i 4 -k RTR
+ -t 6.534045351 -s 4 -d 1 -p tcp -e 1040 -c 2 -a 0 -i 7 -k RTR 
- -t 6.534045351 -s 4 -d 1 -p tcp -e 1040 -c 2 -a 0 -i 7 -k RTR
h -t 6.534045351 -s 4 -d 1 -p tcp -e 1040 -c 2 -a 0 -i 7 -k RTR
r -t 6.544090437 -s 1 -d 1 -p tcp -e 1040 -c 2 -a 0 -i 7 -k AGT
+ -t 6.544090437 -s 1 -d -1 -p ack -e 40 -c 2 -a 0 -i 8 -k AGT 
- -t 6.544090437 -s 1 -d -1 -p ack -e 40 -c 2 -a 0 -i 8 -k AGT
h -t 6.544090437 -s 1 -d -1 -p ack -e 40 -c 2 -a 0 -i 8 -k AGT
+ -t 6.544090437 -s 1 -d 4 -p ack -e 40 -c 2 -a 0 -i 8 -k RTR 
- -t 6.544090437 -s 1 -d 4 -p ack -e 40 -c 2 -a 0 -i 8 -k RTR
h -t 6.544090437 -s 1 -d 4 -p ack -e 40 -c 2 -a 0 -i 8 -k RTR
+ -t 6.546075527 -s 4 -d 0 -p ack -e 40 -c 2 -a 0 -i 8 -k RTR 
- -t 6.546075527 -s 4 -d 0 -p ack -e 40 -c 2 -a 0 -i 8 -k RTR
h -t 6.546075527 -s 4 -d 0 -p ack -e 40 -c 2 -a 0 -i 8 -k RTR
r -t 6.547961876 -s 0 -d 0 -p ack -e 40 -c 2 -a 0 -i 8 -k AGT
+ -t 6.547961876 -s 0 -d -1 -p tcp -e 1040 -c 2 -a 0 -i 9 -k AGT 
- -t 6.547961876 -s 0 -d -1 -p tcp -e 1040 -c 2 -a 0 -i 9 -k AGT
h -t 6.547961876 -s 0 -d -1 -p tcp -e 1040 -c 2 -a 0 -i 9 -k AGT
+ -t 6.547961876 -s 0 -d -1 -p tcp -e 1040 -c 2 -a 0 -i 10 -k AGT 
- -t 6.547961876 -s 0 -d -1 -p tcp -e 1040 -c 2 -a 0 -i 10 -k AGT
h -t 6.547961876 -s 0 -d -1 -p tcp -e 1040 -c 2 -a 0 -i 10 -k AGT
+ -t 6.547961876 -s 0 -d 4 -p tcp -e 1040 -c 2 -a 0 -i 9 -k RTR 
- -t 6.547961876 -s 0 -d 4 -p tcp -e 1040 -c 2 -a 0 -i 9 -k RTR
h -t 6.547961876 -s 0 -d 4 -p tcp -e 1040 -c 2 -a 0 -i 9 -k RTR
+ -t 6.547961876 -s 0 -d 4 -p tcp -e 1040 -c 2 -a 0 -i 10 -k RTR 
- -t 6.547961876 -s 0 -d 4 -p tcp -e 1040 -c 2 -a 0 -i 10 -k RTR
h -t 6.547961876 -s 0 -d 4 -p tcp -e 1040 -c 2 -a 0 -i 10 -k RTR
+ -t 6.549908225 -s 4 -d 1 -p tcp -e 40 -c 2 -a 0 -i 4 -k RTR 
- -t 6.549908225 -s 4 -d 1 -p tcp -e 40 -c 2 -a 0 -i 4 -k RTR
h -t 6.549908225 -s 4 -d 1 -p tcp -e 40 -c 2 -a 0 -i 4 -k RTR
+ -t 6.559735355 -s 4 -d 1 -p tcp -e 1040 -c 2 -a 0 -i 9 -k RTR 
- -t 6.559735355 -s 4 -d 1 -p tcp -e 1040 -c 2 -a 0 -i 9 -k RTR
h -t 6.559735355 -s 4 -d 1 -p tcp -e 1040 -c 2 -a 0 -i 9 -k RTR
r -t 6.561760452 -s 1 -d 1 -p tcp -e 40 -c 2 -a 0 -i 4 -k AGT
+ -t 6.561760452 -s 1 -d -1 -p ack -e 40 -c 2 -a 0 -i 11 -k AGT 
- -t 6.561760452 -s 1 -d -1 -p ack -e 40 -c 2 -a 0 -i 11 -k AGT
h -t 6.561760452 -s 1 -d -1 -p ack -e 40 -c 2 -a 0 -i 11 -k AGT
+ -t 6.561760452 -s 1 -d 4 -p ack -e 40 -c 2 -a 0 -i 11 -k RTR 
- -t 6.561760452 -s 1 -d 4 -p ack -e 40 -c 2 -a 0 -i 11 -k RTR
h -t 6.561760452 -s 1 -d 4 -p ack -e 40 -c 2 -a 0 -i 11 -k RTR
r -t 6.571865914 -s 1 -d 1 -p tcp -e 1040 -c 2 -a 0 -i 9 -k AGT
+ -t 6.571865914 -s 1 -d -1 -p ack -e 40 -c 2 -a 0 -i 12 -k AGT 
- -t 6.571865914 -s 1 -d -1 -p ack -e 40 -c 2 -a 0 -i 12 -k AGT
h -t 6.571865914 -s 1 -d -1 -p ack -e 40 -c 2 -a 0 -i 12 -k AGT
+ -t 6.571865914 -s 1 -d 4 -p ack -e 40 -c 2 -a 0 -i 12 -k RTR 
- -t 6.571865914 -s 1 -d 4 -p ack -e 40 -c 2 -a 0 -i 12 -k RTR
h -t 6.571865914 -s 1 -d 4 -p ack -e 40 -c 2 -a 0 -i 12 -k RTR
+ -t 6.573711015 -s 4 -d 0 -p ack -e 40 -c 2 -a 0 -i 11 -k RTR 
- -t 6.573711015 -s 4 -d 0 -p ack -e 40 -c 2 -a 0 -i 11 -k RTR
h -t 6.573711015 -s 4 -d 0 -p ack -e 40 -c 2 -a 0 -i 11 -k RTR
+ -t 6.583648137 -s 4 -d 1 -p tcp -e 1040 -c 2 -a 0 -i 10 -k RTR 
- -t 6.583648137 -s 4 -d 1 -p tcp -e 1040 -c 2 -a 0 -i 10 -k RTR
h -t 6.583648137 -s 4 -d 1 -p tcp -e 1040 -c 2 -a 0 -i 10 -k RTR
+ -t 6.585663610 -s 4 -d 0 -p ack -e 40 -c 2 -a 0 -i 12 -k RTR 
- -t 6.585663610 -s 4 -d 0 -p ack -e 40 -c 2 -a 0 -i 12 -k RTR
h -t 6.585663610 -s 4 -d 0 -p ack -e 40 -c 2 -a 0 -i 12 -k RTR
r -t 6.587689948 -s 0 -d 0 -p ack -e 40 -c 2 -a 0 -i 11 -k AGT
+ -t 6.587689948 -s 0 -d -1 -p tcp -e 1040 -c 2 -a 0 -i 13 -k AGT 
- -t 6.587689948 -s 0 -d -1 -p tcp -e 1040 -c 2 -a 0 -i 13 -k AGT
h -t 6.587689948 -s 0 -d -1 -p tcp -e 1040 -c 2 -a 0 -i 13 -k AGT
+ -t 6.587689948 -s 0 -d 4 -p tcp -e 1040 -c 2 -a 0 -i 13 -k RTR 
- -t 6.587689948 -s 0 -d 4 -p tcp -e 1040 -c 2 -a 0 -i 13 -k RTR
h -t 6.587689948 -s 0 -d 4 -p tcp -e 1040 -c 2 -a 0 -i 13 -k RTR
+ -t 6.597556286 -s 4 -d 1 -p tcp -e 1040 -c 2 -a 0 -i 13 -k RTR 
- -t 6.597556286 -s 4 -d 1 -p tcp -e 1040 -c 2 -a 0 -i 13 -k RTR
h -t 6.597556286 -s 4 -d 1 -p tcp -e 1040 -c 2 -a 0 -i 13 -k RTR
r -t 6.607821397 -s 1 -d 1 -p tcp -e 1040 -c 2 -a 0 -i 10 -k AGT
+ -t 6.607821397 -s 1 -d -1 -p ack -e 40 -c 2 -a 0 -i 14 -k AGT 
- -t 6.607821397 -s 1 -d -1 -p ack -e 40 -c 2 -a 0 -i 14 -k AGT
h -t 6.607821397 -s 1 -d -1 -p ack -e 40 -c 2 -a 0 -i 14 -k AGT
+ -t 6.607821397 -s 1 -d 4 -p ack -e 40 -c 2 -a 0 -i 14 -k RTR 
- -t 6.607821397 -s 1 -d 4 -p ack -e 40 -c 2 -a 0 -i 14 -k RTR
h -t 6.607821397 -s 1 -d 4 -p ack -e 40 -c 2 -a 0 -i 14 -k RTR
r -t 6.609748101 -s 0 -d 0 -p ack -e 40 -c 2 -a 0 -i 12 -k AGT
r -t 6.619653994 -s 1 -d 1 -p tcp -e 1040 -c 2 -a 0 -i 13 -k AGT
+ -t 6.619653994 -s 1 -d -1 -p ack -e 40 -c 2 -a 0 -i 15 -k AGT 
- -t 6.619653994 -s 1 -d -1 -p ack -e 40 -c 2 -a 0 -i 15 -k AGT
h -t 6.619653994 -s 1 -d -1 -p ack -e 40 -c 2 -a 0 -i 15 -k AGT
+ -t 6.619653994 -s 1 -d 4 -p ack -e 40 -c 2 -a 0 -i 15 -k RTR 
- -t 6.619653994 -s 1 -d 4 -p ack -e 40 -c 2 -a 0 -i 15 -k RTR
h -t 6.619653994 -s 1 -d 4 -p ack -e 40 -c 2 -a 0 -i 15 -k RTR
+ -t 6.621579113 -s 4 -d 0 -p ack -e 40 -c 2 -a 0 -i 14 -k RTR 
- -t 6.621579113 -s 4 -d 0 -p ack -e 40 -c 2 -a 0 -i 14 -k RTR
h -t 6.621579113 -s 4 -d 0 -p ack -e 40 -c 2 -a 0 -i 14 -k RTR
r -t 6.623565442 -s 0 -d 0 -p ack -e 40 -c 2 -a 0 -i 14 -k AGT
+ -t 6.623565442 -s 0 -d -1 -p tcp -e 1040 -c 2 -a 0 -i 16 -k AGT 
- -t 6.623565442 -s 0 -d -1 -p tcp -e 1040 -c 2 -a 0 -i 16 -k AGT
h -t 6.623565442 -s 0 -d -1 -p tcp -e 1040 -c 2 -a 0 -i 16 -k AGT
+ -t 6.623565442 -s 0 -d 4 -p tcp -e 1040 -c 2 -a 0 -i 16 -k RTR 
- -t 6.623565442 -s 0 -d 4 -p tcp -e 1040 -c 2 -a 0 -i 16 -k RTR
h -t 6.623565442 -s 0 -d 4 -p tcp -e 1040 -c 2 -a 0 -i 16 -k RTR
+ -t 6.633451771 -s 4 -d 1 -p tcp -e 1040 -c 2 -a 0 -i 16 -k RTR 
- -t 6.633451771 -s 4 -d 1 -p tcp -e 1040 -c 2 -a 0 -i 16 -k RTR
h -t 6.633451771 -s 4 -d 1 -p tcp -e 1040 -c 2 -a 0 -i 16 -k RTR
+ -t 6.635367269 -s 4 -d 0 -p ack -e 40 -c 2 -a 0 -i 15 -k RTR 
- -t 6.635367269 -s 4 -d 0 -p ack -e 40 -c 2 -a 0 -i 15 -k RTR
h -t 6.635367269 -s 4 -d 0 -p ack -e 40 -c 2 -a 0 -i 15 -k RTR
r -t 6.645412395 -s 1 -d 1 -p tcp -e 1040 -c 2 -a 0 -i 16 -k AGT
+ -t 6.645412395 -s 1 -d -1 -p ack -e 40 -c 2 -a 0 -i 17 -k AGT 
- -t 6.645412395 -s 1 -d -1 -p ack -e 40 -c 2 -a 0 -i 17 -k AGT
h -t 6.645412395 -s 1 -d -1 -p ack -e 40 -c 2 -a 0 -i 17 -k AGT
+ -t 6.645412395 -s 1 -d 4 -p ack -e 40 -c 2 -a 0 -i 17 -k RTR 
- -t 6.645412395 -s 1 -d 4 -p ack -e 40 -c 2 -a 0 -i 17 -k RTR
h -t 6.645412395 -s 1 -d 4 -p ack -e 40 -c 2 -a 0 -i 17 -k RTR
+ -t 6.647297524 -s 4 -d 0 -p ack -e 40 -c 2 -a 0 -i 17 -k RTR 
- -t 6.647297524 -s 4 -d 0 -p ack -e 40 -c 2 -a 0 -i 17 -k RTR
h -t 6.647297524 -s 4 -d 0 -p ack -e 40 -c 2 -a 0 -i 17 -k RTR
r -t 6.649643847 -s 0 -d 0 -p ack -e 40 -c 2 -a 0 -i 15 -k AGT
+ -t 6.649643847 -s 0 -d -1 -p tcp -e 1040 -c 2 -a 0 -i 18 -k AGT 
- -t 6.649643847 -s 0 -d -1 -p tcp -e 1040 -c 2 -a 0 -i 18 -k AGT
h -t 6.649643847 -s 0 -d -1 -p tcp -e 1040 -c 2 -a 0 -i 18 -k AGT
+ -t 6.649643847 -s 0 -d -1 -p tcp -e 1040 -c 2 -a 0 -i 19 -k AGT 
- -t 6.649643847 -s 0 -d -1 -p tcp -e 1040 -c 2 -a 0 -i 19 -k AGT
h -t 6.649643847 -s 0 -d -1 -p tcp -e 1040 -c 2 -a 0 -i 19 -k AGT
+ -t 6.649643847 -s 0 -d 4 -p tcp -e 1040 -c 2 -a 0 -i 18 -k RTR 
- -t 6.649643847 -s 0 -d 4 -p tcp -e 1040 -c 2 -a 0 -i 18 -k RTR
h -t 6.649643847 -s 0 -d 4 -p tcp -e 1040 -c 2 -a 0 -i 18 -k RTR
+ -t 6.649643847 -s 0 -d 4 -p tcp -e 1040 -c 2 -a 0 -i 19 -k RTR 
- -t 6.649643847 -s 0 -d 4 -p tcp -e 1040 -c 2 -a 0 -i 19 -k RTR
h -t 6.649643847 -s 0 -d 4 -p tcp -e 1040 -c 2 -a 0 -i 19 -k RTR
r -t 6.651910942 -s 0 -d 0 -p ack -e 40 -c 2 -a 0 -i 17 -k AGT
+ -t 6.651910942 -s 0 -d -1 -p tcp -e 1040 -c 2 -a 0 -i 20 -k AGT 
- -t 6.651910942 -s 0 -d -1 -p tcp -e 1040 -c 2 -a 0 -i 20 -k AGT
h -t 6.651910942 -s 0 -d -1 -p tcp -e 1040 -c 2 -a 0 -i 20 -k AGT
+ -t 6.651910942 -s 0 -d 4 -p tcp -e 1040 -c 2 -a 0 -i 20 -k RTR 
- -t 6.651910942 -s 0 -d 4 -p tcp -e 1040 -c 2 -a 0 -i 20 -k RTR
h -t 6.651910942 -s 0 -d 4 -p tcp -e 1040 -c 2 -a 0 -i 20 -k RTR
+ -t 6.661897264 -s 4 -d 1 -p tcp -e 1040 -c 2 -a 0 -i 18 -k RTR 
- -t 6.661897264 -s 4 -d 1 -p tcp -e 1040 -c 2 -a 0 -i 18 -k RTR
h -t 6.661897264 -s 4 -d 1 -p tcp -e 1040 -c 2 -a 0 -i 18 -k RTR
+ -t 6.672024355 -s 4 -d 1 -p tcp -e 1040 -c 2 -a 0 -i 19 -k RTR 
- -t 6.672024355 -s 4 -d 1 -p tcp -e 1040 -c 2 -a 0 -i 19 -k RTR
h -t 6.672024355 -s 4 -d 1 -p tcp -e 1040 -c 2 -a 0 -i 19 -k RTR
r -t 6.681949496 -s 1 -d 1 -p tcp -e 1040 -c 2 -a 0 -i 18 -k AGT
+ -t 6.681949496 -s 1 -d -1 -p ack -e 40 -c 2 -a 0 -i 21 -k AGT 
- -t 6.681949496 -s 1 -d -1 -p ack -e 40 -c 2 -a 0 -i 21 -k AGT
h -t 6.681949496 -s 1 -d -1 -p ack -e 40 -c 2 -a 0 -i 21 -k AGT
+ -t 6.681949496 -s 1 -d 4 -p ack -e 40 -c 2 -a 0 -i 21 -k RTR 
- -t 6.681949496 -s 1 -d 4 -p ack -e 40 -c 2 -a 0 -i 21 -k RTR
h -t 6.681949496 -s 1 -d 4 -p ack -e 40 -c 2 -a 0 -i 21 -k RTR
+ -t 6.684074640 -s 4 -d 0 -p ack -e 40 -c 2 -a 0 -i 21 -k RTR 
- -t 6.684074640 -s 4 -d 0 -p ack -e 40 -c 2 -a 0 -i 21 -k RTR
h -t 6.684074640 -s 4 -d 0 -p ack -e 40 -c 2 -a 0 -i 21 -k RTR
r -t 6.693939785 -s 1 -d 1 -p tcp -e 1040 -c 2 -a 0 -i 19 -k AGT
+ -t 6.693939785 -s 1 -d -1 -p ack -e 40 -c 2 -a 0 -i 22 -k AGT 
- -t 6.693939785 -s 1 -d -1 -p ack -e 40 -c 2 -a 0 -i 22 -k AGT
h -t 6.693939785 -s 1 -d -1 -p ack -e 40 -c 2 -a 0 -i 22 -k AGT
+ -t 6.693939785 -s 1 -d 4 -p ack -e 40 -c 2 -a 0 -i 22 -k RTR 
- -t 6.693939785 -s 1 -d 4 -p ack -e 40 -c 2 -a 0 -i 22 -k RTR
h -t 6.693939785 -s 1 -d 4 -p ack -e 40 -c 2 -a 0 -i 22 -k RTR
r -t 6.695986479 -s 0 -d 0 -p ack -e 40 -c 2 -a 0 -i 21 -k AGT
+ -t 6.695986479 -s 0 -d -1 -p tcp -e 1040 -c 2 -a 0 -i 23 -k AGT 
- -t 6.695986479 -s 0 -d -1 -p tcp -e 1040 -c 2 -a 0 -i 23 -k AGT
h -t 6.695986479 -s 0 -d -1 -p tcp -e 1040 -c 2 -a 0 -i 23 -k AGT
+ -t 6.695986479 -s 0 -d 4 -p tcp -e 1040 -c 2 -a 0 -i 23 -k RTR 
- -t 6.695986479 -s 0 -d 4 -p tcp -e 1040 -c 2 -a 0 -i 23 -k RTR
h -t 6.695986479 -s 0 -d 4 -p tcp -e 1040 -c 2 -a 0 -i 23 -k RTR
+ -t 6.706032789 -s 4 -d 1 -p tcp -e 1040 -c 2 -a 0 -i 20 -k RTR 
- -t 6.706032789 -s 4 -d 1 -p tcp -e 1040 -c 2 -a 0 -i 20 -k RTR
h -t 6.706032789 -s 4 -d 1 -p tcp -e 1040 -c 2 -a 0 -i 20 -k RTR
r -t 6.716017943 -s 1 -d 1 -p tcp -e 1040 -c 2 -a 0 -i 20 -k AGT
+ -t 6.716017943 -s 1 -d -1 -p ack -e 40 -c 2 -a 0 -i 24 -k AGT 
- -t 6.716017943 -s 1 -d -1 -p ack -e 40 -c 2 -a 0 -i 24 -k AGT
h -t 6.716017943 -s 1 -d -1 -p ack -e 40 -c 2 -a 0 -i 24 -k AGT
+ -t 6.716017943 -s 1 -d 4 -p ack -e 40 -c 2 -a 0 -i 24 -k RTR 
- -t 6.716017943 -s 1 -d 4 -p ack -e 40 -c 2 -a 0 -i 24 -k RTR
h -t 6.716017943 -s 1 -d 4 -p ack -e 40 -c 2 -a 0 -i 24 -k RTR
+ -t 6.718103101 -s 4 -d 0 -p ack -e 40 -c 2 -a 0 -i 22 -k RTR 
- -t 6.718103101 -s 4 -d 0 -p ack -e 40 -c 2 -a 0 -i 22 -k RTR
h -t 6.718103101 -s 4 -d 0 -p ack -e 40 -c 2 -a 0 -i 22 -k RTR
+ -t 6.720048645 -s 4 -d 0 -p ack -e 40 -c 2 -a 0 -i 24 -k RTR 
- -t 6.720048645 -s 4 -d 0 -p ack -e 40 -c 2 -a 0 -i 24 -k RTR
h -t 6.720048645 -s 4 -d 0 -p ack -e 40 -c 2 -a 0 -i 24 -k RTR
r -t 6.721894951 -s 0 -d 0 -p ack -e 40 -c 2 -a 0 -i 22 -k AGT
+ -t 6.721894951 -s 0 -d -1 -p tcp -e 1040 -c 2 -a 0 -i 25 -k AGT 
- -t 6.721894951 -s 0 -d -1 -p tcp -e 1040 -c 2 -a 0 -i 25 -k AGT
h -t 6.721894951 -s 0 -d -1 -p tcp -e 1040 -c 2 -a 0 -i 25 -k AGT
+ -t 6.721894951 -s 0 -d -1 -p tcp -e 1040 -c 2 -a 0 -i 26 -k AGT 
- -t 6.721894951 -s 0 -d -1 -p tcp -e 1040 -c 2 -a 0 -i 26 -k AGT
h -t 6.721894951 -s 0 -d -1 -p tcp -e 1040 -c 2 -a 0 -i 26 -k AGT
+ -t 6.721894951 -s 0 -d 4 -p tcp -e 1040 -c 2 -a 0 -i 25 -k RTR 
- -t 6.721894951 -s 0 -d 4 -p tcp -e 1040 -c 2 -a 0 -i 25 -k RTR
h -t 6.721894951 -s 0 -d 4 -p tcp -e 1040 -c 2 -a 0 -i 25 -k RTR
+ -t 6.721894951 -s 0 -d 4 -p tcp -e 1040 -c 2 -a 0 -i 26 -k RTR 
- -t 6.721894951 -s 0 -d 4 -p tcp -e 1040 -c 2 -a 0 -i 26 -k RTR
h -t 6.721894951 -s 0 -d 4 -p tcp -e 1040 -c 2 -a 0 -i 26 -k RTR
r -t 6.723942023 -s 0 -d 0 -p ack -e 40 -c 2 -a 0 -i 24 -k AGT
+ -t 6.723942023 -s 0 -d -1 -p tcp -e 1040 -c 2 -a 0 -i 27 -k AGT 
- -t 6.723942023 -s 0 -d -1 -p tcp -e 1040 -c 2 -a 0 -i 27 -k AGT
h -t 6.723942023 -s 0 -d -1 -p tcp -e 1040 -c 2 -a 0 -i 27 -k AGT
+ -t 6.723942023 -s 0 -d 4 -p tcp -e 1040 -c 2 -a 0 -i 27 -k RTR 
- -t 6.723942023 -s 0 -d 4 -p tcp -e 1040 -c 2 -a 0 -i 27 -k RTR
h -t 6.723942023 -s 0 -d 4 -p tcp -e 1040 -c 2 -a 0 -i 27 -k RTR
+ -t 6.733788328 -s 4 -d 1 -p tcp -e 1040 -c 2 -a 0 -i 23 -k RTR 
- -t 6.733788328 -s 4 -d 1 -p tcp -e 1040 -c 2 -a 0 -i 23 -k RTR
h -t 6.733788328 -s 4 -d 1 -p tcp -e 1040 -c 2 -a 0 -i 23 -k RTR
r -t 6.743753492 -s 1 -d 1 -p tcp -e 1040 -c 2 -a 0 -i 23 -k AGT
+ -t 6.743753492 -s 1 -d -1 -p ack -e 40 -c 2 -a 0 -i 28 -k AGT 
- -t 6.743753492 -s 1 -d -1 -p ack -e 40 -c 2 -a 0 -i 28 -k AGT
h -t 6.743753492 -s 1 -d -1 -p ack -e 40 -c 2 -a 0 -i 28 -k AGT
+ -t 6.743753492 -s 1 -d 4 -p ack -e 40 -c 2 -a 0 -i 28 -k RTR 
- -t 6.743753492 -s 1 -d 4 -p ack -e 40 -c 2 -a 0 -i 28 -k RTR
h -t 6.743753492 -s 1 -d 4 -p ack -e 40 -c 2 -a 0 -i 28 -k RTR
+ -t 6.745638661 -s 4 -d 0 -p ack -e 40 -c 2 -a 0 -i 28 -k RTR 
- -t 6.745638661 -s 4 -d 0 -p ack -e 40 -c 2 -a 0 -i 28 -k RTR
h -t 6.745638661 -s 4 -d 0 -p ack -e 40 -c 2 -a 0 -i 28 -k RTR
r -t 6.747724961 -s 0 -d 0 -p ack -e 40 -c 2 -a 0 -i 28 -k AGT
+ -t 6.747724961 -s 0 -d -1 -p tcp -e 1040 -c 2 -a 0 -i 29 -k AGT 
- -t 6.747724961 -s 0 -d -1 -p tcp -e 1040 -c 2 -a 0 -i 29 -k AGT
h -t 6.747724961 -s 0 -d -1 -p tcp -e 1040 -c 2 -a 0 -i 29 -k AGT
+ -t 6.747724961 -s 0 -d 4 -p tcp -e 1040 -c 2 -a 0 -i 29 -k RTR 
- -t 6.747724961 -s 0 -d 4 -p tcp -e 1040 -c 2 -a 0 -i 29 -k RTR
h -t 6.747724961 -s 0 -d 4 -p tcp -e 1040 -c 2 -a 0 -i 29 -k RTR
+ -t 6.757591259 -s 4 -d 1 -p tcp -e 1040 -c 2 -a 0 -i 25 -k RTR 
- -t 6.757591259 -s 4 -d 1 -p tcp -e 1040 -c 2 -a 0 -i 25 -k RTR
h -t 6.757591259 -s 4 -d 1 -p tcp -e 1040 -c 2 -a 0 -i 25 -k RTR
+ -t 6.767738322 -s 4 -d 1 -p tcp -e 1040 -c 2 -a 0 -i 26 -k RTR 
- -t 6.767738322 -s 4 -d 1 -p tcp -e 1040 -c 2 -a 0 -i 26 -k RTR
h -t 6.767738322 -s 4 -d 1 -p tcp -e 1040 -c 2 -a 0 -i 26 -k RTR
r -t 6.777723500 -s 1 -d 1 -p tcp -e 1040 -c 2 -a 0 -i 25 -k AGT
+ -t 6.777723500 -s 1 -d -1 -p ack -e 40 -c 2 -a 0 -i 30 -k AGT 
- -t 6.777723500 -s 1 -d -1 -p ack -e 40 -c 2 -a 0 -i 30 -k AGT
h -t 6.777723500 -s 1 -d -1 -p ack -e 40 -c 2 -a 0 -i 30 -k AGT
+ -t 6.777723500 -s 1 -d 4 -p ack -e 40 -c 2 -a 0 -i 30 -k RTR 
- -t 6.777723500 -s 1 -d 4 -p ack -e 40 -c 2 -a 0 -i 30 -k RTR
h -t 6.777723500 -s 1 -d 4 -p ack -e 40 -c 2 -a 0 -i 30 -k RTR
+ -t 6.779568683 -s 4 -d 0 -p ack -e 40 -c 2 -a 0 -i 30 -k RTR 
- -t 6.779568683 -s 4 -d 0 -p ack -e 40 -c 2 -a 0 -i 30 -k RTR
h -t 6.779568683 -s 4 -d 0 -p ack -e 40 -c 2 -a 0 -i 30 -k RTR
+ -t 6.789465736 -s 4 -d 1 -p tcp -e 1040 -c 2 -a 0 -i 27 -k RTR 
- -t 6.789465736 -s 4 -d 1 -p tcp -e 1040 -c 2 -a 0 -i 27 -k RTR
h -t 6.789465736 -s 4 -d 1 -p tcp -e 1040 -c 2 -a 0 -i 27 -k RTR
+ -t 6.799292790 -s 4 -d 1 -p tcp -e 1040 -c 2 -a 0 -i 29 -k RTR 
- -t 6.799292790 -s 4 -d 1 -p tcp -e 1040 -c 2 -a 0 -i 29 -k RTR
h -t 6.799292790 -s 4 -d 1 -p tcp -e 1040 -c 2 -a 0 -i 29 -k RTR
r -t 6.809297981 -s 1 -d 1 -p tcp -e 1040 -c 2 -a 0 -i 26 -k AGT
+ -t 6.809297981 -s 1 -d -1 -p ack -e 40 -c 2 -a 0 -i 31 -k AGT 
- -t 6.809297981 -s 1 -d -1 -p ack -e 40 -c 2 -a 0 -i 31 -k AGT
h -t 6.809297981 -s 1 -d -1 -p ack -e 40 -c 2 -a 0 -i 31 -k AGT
+ -t 6.809297981 -s 1 -d 4 -p ack -e 40 -c 2 -a 0 -i 31 -k RTR 
- -t 6.809297981 -s 1 -d 4 -p ack -e 40 -c 2 -a 0 -i 31 -k RTR
h -t 6.809297981 -s 1 -d 4 -p ack -e 40 -c 2 -a 0 -i 31 -k RTR
+ -t 6.811643176 -s 4 -d 0 -p ack -e 40 -c 2 -a 0 -i 31 -k RTR 
- -t 6.811643176 -s 4 -d 0 -p ack -e 40 -c 2 -a 0 -i 31 -k RTR
h -t 6.811643176 -s 4 -d 0 -p ack -e 40 -c 2 -a 0 -i 31 -k RTR
r -t 6.813549462 -s 0 -d 0 -p ack -e 40 -c 2 -a 0 -i 30 -k AGT
+ -t 6.813549462 -s 0 -d -1 -p tcp -e 1040 -c 2 -a 0 -i 32 -k AGT 
- -t 6.813549462 -s 0 -d -1 -p tcp -e 1040 -c 2 -a 0 -i 32 -k AGT
h -t 6.813549462 -s 0 -d -1 -p tcp -e 1040 -c 2 -a 0 -i 32 -k AGT
+ -t 6.813549462 -s 0 -d 4 -p tcp -e 1040 -c 2 -a 0 -i 32 -k RTR 
- -t 6.813549462 -s 0 -d 4 -p tcp -e 1040 -c 2 -a 0 -i 32 -k RTR
h -t 6.813549462 -s 0 -d 4 -p tcp -e 1040 -c 2 -a 0 -i 32 -k RTR
+ -t 6.823395747 -s 4 -d 1 -p tcp -e 1040 -c 2 -a 0 -i 32 -k RTR 
- -t 6.823395747 -s 4 -d 1 -p tcp -e 1040 -c 2 -a 0 -i 32 -k RTR
h -t 6.823395747 -s 4 -d 1 -p tcp -e 1040 -c 2 -a 0 -i 32 -k RTR
r -t 6.833240948 -s 1 -d 1 -p tcp -e 1040 -c 2 -a 0 -i 27 -k AGT
+ -t 6.833240948 -s 1 -d -1 -p ack -e 40 -c 2 -a 0 -i 33 -k AGT 
- -t 6.833240948 -s 1 -d -1 -p ack -e 40 -c 2 -a 0 -i 33 -k AGT
h -t 6.833240948 -s 1 -d -1 -p ack -e 40 -c 2 -a 0 -i 33 -k AGT
+ -t 6.833240948 -s 1 -d 4 -p ack -e 40 -c 2 -a 0 -i 33 -k RTR 
- -t 6.833240948 -s 1 -d 4 -p ack -e 40 -c 2 -a 0 -i 33 -k RTR
h -t 6.833240948 -s 1 -d 4 -p ack -e 40 -c 2 -a 0 -i 33 -k RTR
r -t 6.843326555 -s 1 -d 1 -p tcp -e 1040 -c 2 -a 0 -i 29 -k AGT
+ -t 6.843326555 -s 1 -d -1 -p ack -e 40 -c 2 -a 0 -i 34 -k AGT 
- -t 6.843326555 -s 1 -d -1 -p ack -e 40 -c 2 -a 0 -i 34 -k AGT
h -t 6.843326555 -s 1 -d -1 -p ack -e 40 -c 2 -a 0 -i 34 -k AGT
+ -t 6.843326555 -s 1 -d 4 -p ack -e 40 -c 2 -a 0 -i 34 -k RTR 
- -t 6.843326555 -s 1 -d 4 -p ack -e 40 -c 2 -a 0 -i 34 -k RTR
h -t 6.843326555 -s 1 -d 4 -p ack -e 40 -c 2 -a 0 -i 34 -k RTR
r -t 6.845173237 -s 0 -d 0 -p ack -e 40 -c 2 -a 0 -i 31 -k AGT
+ -t 6.845173237 -s 0 -d -1 -p tcp -e 1040 -c 2 -a 0 -i 35 -k AGT 
- -t 6.845173237 -s 0 -d -1 -p tcp -e 1040 -c 2 -a 0 -i 35 -k AGT
h -t 6.845173237 -s 0 -d -1 -p tcp -e 1040 -c 2 -a 0 -i 35 -k AGT
+ -t 6.845173237 -s 0 -d 4 -p tcp -e 1040 -c 2 -a 0 -i 35 -k RTR 
- -t 6.845173237 -s 0 -d 4 -p tcp -e 1040 -c 2 -a 0 -i 35 -k RTR
h -t 6.845173237 -s 0 -d 4 -p tcp -e 1040 -c 2 -a 0 -i 35 -k RTR
r -t 6.855019207 -s 1 -d 1 -p tcp -e 1040 -c 2 -a 0 -i 32 -k AGT
+ -t 6.855019207 -s 1 -d -1 -p ack -e 40 -c 2 -a 0 -i 36 -k AGT 
- -t 6.855019207 -s 1 -d -1 -p ack -e 40 -c 2 -a 0 -i 36 -k AGT
h -t 6.855019207 -s 1 -d -1 -p ack -e 40 -c 2 -a 0 -i 36 -k AGT
+ -t 6.855019207 -s 1 -d 4 -p ack -e 40 -c 2 -a 0 -i 36 -k RTR 
- -t 6.855019207 -s 1 -d 4 -p ack -e 40 -c 2 -a 0 -i 36 -k RTR
h -t 6.855019207 -s 1 -d 4 -p ack -e 40 -c 2 -a 0 -i 36 -k RTR
+ -t 6.856904421 -s 4 -d 0 -p ack -e 40 -c 2 -a 0 -i 33 -k RTR 
- -t 6.856904421 -s 4 -d 0 -p ack -e 40 -c 2 -a 0 -i 33 -k RTR
h -t 6.856904421 -s 4 -d 0 -p ack -e 40 -c 2 -a 0 -i 33 -k RTR
+ -t 6.866821452 -s 4 -d 1 -p tcp -e 1040 -c 2 -a 0 -i 35 -k RTR 
- -t 6.866821452 -s 4 -d 1 -p tcp -e 1040 -c 2 -a 0 -i 35 -k RTR
h -t 6.866821452 -s 4 -d 1 -p tcp -e 1040 -c 2 -a 0 -i 35 -k RTR
r -t 6.868887726 -s 0 -d 0 -p ack -e 40 -c 2 -a 0 -i 33 -k AGT
+ -t 6.868887726 -s 0 -d -1 -p tcp -e 1040 -c 2 -a 0 -i 37 -k AGT 
- -t 6.868887726 -s 0 -d -1 -p tcp -e 1040 -c 2 -a 0 -i 37 -k AGT
h -t 6.868887726 -s 0 -d -1 -p tcp -e 1040 -c 2 -a 0 -i 37 -k AGT
+ -t 6.868887726 -s 0 -d -1 -p tcp -e 1040 -c 2 -a 0 -i 38 -k AGT 
- -t 6.868887726 -s 0 -d -1 -p tcp -e 1040 -c 2 -a 0 -i 38 -k AGT
h -t 6.868887726 -s 0 -d -1 -p tcp -e 1040 -c 2 -a 0 -i 38 -k AGT
+ -t 6.868887726 -s 0 -d 4 -p tcp -e 1040 -c 2 -a 0 -i 37 -k RTR 
- -t 6.868887726 -s 0 -d 4 -p tcp -e 1040 -c 2 -a 0 -i 37 -k RTR
h -t 6.868887726 -s 0 -d 4 -p tcp -e 1040 -c 2 -a 0 -i 37 -k RTR
+ -t 6.868887726 -s 0 -d 4 -p tcp -e 1040 -c 2 -a 0 -i 38 -k RTR 
- -t 6.868887726 -s 0 -d 4 -p tcp -e 1040 -c 2 -a 0 -i 38 -k RTR
h -t 6.868887726 -s 0 -d 4 -p tcp -e 1040 -c 2 -a 0 -i 38 -k RTR
+ -t 6.878874001 -s 4 -d 1 -p tcp -e 1040 -c 2 -a 0 -i 37 -k RTR 
- -t 6.878874001 -s 4 -d 1 -p tcp -e 1040 -c 2 -a 0 -i 37 -k RTR
h -t 6.878874001 -s 4 -d 1 -p tcp -e 1040 -c 2 -a 0 -i 37 -k RTR
+ -t 6.880929626 -s 4 -d 0 -p ack -e 40 -c 2 -a 0 -i 34 -k RTR 
- -t 6.880929626 -s 4 -d 0 -p ack -e 40 -c 2 -a 0 -i 34 -k RTR
h -t 6.880929626 -s 4 -d 0 -p ack -e 40 -c 2 -a 0 -i 34 -k RTR
r -t 6.890874851 -s 1 -d 1 -p tcp -e 1040 -c 2 -a 0 -i 35 -k AGT
+ -t 6.890874851 -s 1 -d -1 -p ack -e 40 -c 2 -a 0 -i 39 -k AGT 
- -t 6.890874851 -s 1 -d -1 -p ack -e 40 -c 2 -a 0 -i 39 -k AGT
h -t 6.890874851 -s 1 -d -1 -p ack -e 40 -c 2 -a 0 -i 39 -k AGT
+ -t 6.890874851 -s 1 -d 4 -p ack -e 40 -c 2 -a 0 -i 39 -k RTR 
- -t 6.890874851 -s 1 -d 4 -p ack -e 40 -c 2 -a 0 -i 39 -k RTR
h -t 6.890874851 -s 1 -d 4 -p ack -e 40 -c 2 -a 0 -i 39 -k RTR
+ -t 6.892760080 -s 4 -d 0 -p ack -e 40 -c 2 -a 0 -i 36 -k RTR 
- -t 6.892760080 -s 4 -d 0 -p ack -e 40 -c 2 -a 0 -i 36 -k RTR
h -t 6.892760080 -s 4 -d 0 -p ack -e 40 -c 2 -a 0 -i 36 -k RTR
+ -t 6.902677101 -s 4 -d 1 -p tcp -e 1040 -c 2 -a 0 -i 38 -k RTR 
- -t 6.902677101 -s 4 -d 1 -p tcp -e 1040 -c 2 -a 0 -i 38 -k RTR
h -t 6.902677101 -s 4 -d 1 -p tcp -e 1040 -c 2 -a 0 -i 38 -k RTR
+ -t 6.904652738 -s 4 -d 0 -p ack -e 40 -c 2 -a 0 -i 39 -k RTR 
- -t 6.904652738 -s 4 -d 0 -p ack -e 40 -c 2 -a 0 -i 39 -k RTR
h -t 6.904652738 -s 4 -d 0 -p ack -e 40 -c 2 -a 0 -i 39 -k RTR
r -t 6.914737973 -s 1 -d 1 -p tcp -e 1040 -c 2 -a 0 -i 37 -k AGT
+ -t 6.914737973 -s 1 -d -1 -p ack -e 40 -c 2 -a 0 -i 40 -k AGT 
- -t 6.914737973 -s 1 -d -1 -p ack -e 40 -c 2 -a 0 -i 40 -k AGT
h -t 6.914737973 -s 1 -d -1 -p ack -e 40 -c 2 -a 0 -i 40 -k AGT
+ -t 6.914737973 -s 1 -d 4 -p ack -e 40 -c 2 -a 0 -i 40 -k RTR 
- -t 6.914737973 -s 1 -d 4 -p ack -e 40 -c 2 -a 0 -i 40 -k RTR
h -t 6.914737973 -s 1 -d 4 -p ack -e 40 -c 2 -a 0 -i 40 -k RTR
+ -t 6.916563211 -s 4 -d 0 -p ack -e 40 -c 2 -a 0 -i 40 -k RTR 
- -t 6.916563211 -s 4 -d 0 -p ack -e 40 -c 2 -a 0 -i 40 -k RTR
h -t 6.916563211 -s 4 -d 0 -p ack -e 40 -c 2 -a 0 -i 40 -k RTR
r -t 6.918489477 -s 0 -d 0 -p ack -e 40 -c 2 -a 0 -i 34 -k AGT
+ -t 6.918489477 -s 0 -d -1 -p tcp -e 1040 -c 2 -a 0 -i 41 -k AGT 
- -t 6.918489477 -s 0 -d -1 -p tcp -e 1040 -c 2 -a 0 -i 41 -k AGT
h -t 6.918489477 -s 0 -d -1 -p tcp -e 1040 -c 2 -a 0 -i 41 -k AGT
+ -t 6.918489477 -s 0 -d 4 -p tcp -e 1040 -c 2 -a 0 -i 41 -k RTR 
- -t 6.918489477 -s 0 -d 4 -p tcp -e 1040 -c 2 -a 0 -i 41 -k RTR
h -t 6.918489477 -s 0 -d 4 -p tcp -e 1040 -c 2 -a 0 -i 41 -k RTR
+ -t 6.928855743 -s 4 -d 1 -p tcp -e 1040 -c 2 -a 0 -i 41 -k RTR 
- -t 6.928855743 -s 4 -d 1 -p tcp -e 1040 -c 2 -a 0 -i 41 -k RTR
h -t 6.928855743 -s 4 -d 1 -p tcp -e 1040 -c 2 -a 0 -i 41 -k RTR
r -t 6.930722007 -s 0 -d 0 -p ack -e 40 -c 2 -a 0 -i 36 -k AGT
+ -t 6.930722007 -s 0 -d -1 -p tcp -e 1040 -c 2 -a 0 -i 42 -k AGT 
- -t 6.930722007 -s 0 -d -1 -p tcp -e 1040 -c 2 -a 0 -i 42 -k AGT
h -t 6.930722007 -s 0 -d -1 -p tcp -e 1040 -c 2 -a 0 -i 42 -k AGT
+ -t 6.930722007 -s 0 -d 4 -p tcp -e 1040 -c 2 -a 0 -i 42 -k RTR 
- -t 6.930722007 -s 0 -d 4 -p tcp -e 1040 -c 2 -a 0 -i 42 -k RTR
h -t 6.930722007 -s 0 -d 4 -p tcp -e 1040 -c 2 -a 0 -i 42 -k RTR